# vtk DataFile Version 3.0
Tensor
ASCII
DATASET UNSTRUCTURED_GRID
POINTS 1650 float
0.000087556026434 0.000000000000000 0.000000000000000
0.000086865621014 0.000010973679911 0.000000000000000
0.000084805292859 0.000021774298334 0.000000000000000
0.000081407534576 0.000032231523066 0.000000000000000
0.000076725930842 0.000042180437424 0.000000000000000
0.000070834313345 0.000051464141087 0.000000000000000
0.000063825596412 0.000059936224502 0.000000000000000
0.000055810311696 0.000067463077852 0.000000000000000
0.000046914865025 0.000073925998164 0.000000000000000
0.000037279542907 0.000079223061324 0.000000000000000
0.000027056300128 0.000083270729481 0.000000000000000
0.000016406363333 0.000086005168491 0.000000000000000
0.000005497688388 0.000087383254616 0.000000000000000
-0.000005497688388 0.000087383254616 0.000000000000000
-0.000016406363333 0.000086005168491 0.000000000000000
-0.000027056300128 0.000083270729481 0.000000000000000
-0.000037279542907 0.000079223061324 0.000000000000000
-0.000046914865025 0.000073925998164 0.000000000000000
-0.000055810311696 0.000067463077852 0.000000000000000
-0.000063825596412 0.000059936224502 0.000000000000000
-0.000070834313345 0.000051464141087 0.000000000000000
-0.000076725930842 0.000042180437424 0.000000000000000
-0.000081407534576 0.000032231523066 0.000000000000000
-0.000084805292859 0.000021774298334 0.000000000000000
-0.000086865621014 0.000010973679911 0.000000000000000
-0.000087556026434 0.000000000000000 0.000000000000000
-0.000086865621014 -0.000010973679911 0.000000000000000
-0.000084805292859 -0.000021774298334 0.000000000000000
-0.000081407534576 -0.000032231523066 0.000000000000000
-0.000076725930842 -0.000042180437424 0.000000000000000
-0.000070834313345 -0.000051464141087 0.000000000000000
-0.000063825596412 -0.000059936224502 0.000000000000000
-0.000055810311696 -0.000067463077852 0.000000000000000
-0.000046914865025 -0.000073925998164 0.000000000000000
-0.000037279542907 -0.000079223061324 0.000000000000000
-0.000027056300128 -0.000083270729481 0.000000000000000
-0.000016406363333 -0.000086005168491 0.000000000000000
-0.000005497688388 -0.000087383254616 0.000000000000000
0.000005497688388 -0.000087383254616 0.000000000000000
0.000016406363333 -0.000086005168491 0.000000000000000
0.000027056300128 -0.000083270729481 0.000000000000000
0.000037279542907 -0.000079223061324 0.000000000000000
0.000046914865025 -0.000073925998164 0.000000000000000
0.000055810311696 -0.000067463077852 0.000000000000000
0.000063825596412 -0.000059936224502 0.000000000000000
0.000070834313345 -0.000051464141087 0.000000000000000
0.000076725930842 -0.000042180437424 0.000000000000000
0.000081407534576 -0.000032231523066 0.000000000000000
0.000084805292859 -0.000021774298334 0.000000000000000
0.000086865621014 -0.000010973679911 0.000000000000000
0.003371443549894 0.000000000000000 0.000000000000000
0.003344858710501 0.000422553921888 0.000000000000000
0.003265523451123 0.000838443916006 0.000000000000000
0.003134688936191 0.001241111148706 0.000000000000000
0.002954418504162 0.001624205317188 0.000000000000000
0.002727555127440 0.001981684797564 0.000000000000000
0.002457676576995 0.002307911924882 0.000000000000000
0.002149038998786 0.002597741902464 0.000000000000000
0.001806509791792 0.002846603938429 0.000000000000000
0.001435490846225 0.003050573329806 0.000000000000000
0.001041833352493 0.003206433357448 0.000000000000000
0.000631745524431 0.003311726015612 0.000000000000000
0.000211694692062 0.003364790776181 0.000000000000000
-0.000211694692062 0.003364790776181 0.000000000000000
-0.000631745524431 0.003311726015612 0.000000000000000
-0.001041833352493 0.003206433357448 0.000000000000000
-0.001435490846225 0.003050573329806 0.000000000000000
-0.001806509791792 0.002846603938429 0.000000000000000
-0.002149038998786 0.002597741902464 0.000000000000000
-0.002457676576995 0.002307911924882 0.000000000000000
-0.002727555127440 0.001981684797564 0.000000000000000
-0.002954418504162 0.001624205317188 0.000000000000000
-0.003134688936191 0.001241111148706 0.000000000000000
-0.003265523451123 0.000838443916006 0.000000000000000
-0.003344858710501 0.000422553921888 0.000000000000000
-0.003371443549894 0.000000000000000 0.000000000000000
-0.003344858710501 -0.000422553921888 0.000000000000000
-0.003265523451123 -0.000838443916006 0.000000000000000
-0.003134688936191 -0.001241111148706 0.000000000000000
-0.002954418504162 -0.001624205317188 0.000000000000000
-0.002727555127440 -0.001981684797564 0.000000000000000
-0.002457676576995 -0.002307911924882 0.000000000000000
-0.002149038998786 -0.002597741902464 0.000000000000000
-0.001806509791792 -0.002846603938429 0.000000000000000
-0.001435490846225 -0.003050573329806 0.000000000000000
-0.001041833352493 -0.003206433357448 0.000000000000000
-0.000631745524431 -0.003311726015612 0.000000000000000
-0.000211694692062 -0.003364790776181 0.000000000000000
0.000211694692062 -0.003364790776181 0.000000000000000
0.000631745524431 -0.003311726015612 0.000000000000000
0.001041833352493 -0.003206433357448 0.000000000000000
0.001435490846225 -0.003050573329806 0.000000000000000
0.001806509791792 -0.002846603938429 0.000000000000000
0.002149038998786 -0.002597741902464 0.000000000000000
0.002457676576995 -0.002307911924882 0.000000000000000
0.002727555127440 -0.001981684797564 0.000000000000000
0.002954418504162 -0.001624205317188 0.000000000000000
0.003134688936191 -0.001241111148706 0.000000000000000
0.003265523451123 -0.000838443916006 0.000000000000000
0.003344858710501 -0.000422553921888 0.000000000000000
0.011400754268046 0.000000000000000 0.000000000000000
0.011310855915403 0.001428893397486 0.000000000000000
0.011042578608195 0.002835252292515 0.000000000000000
0.010600153239820 0.004196897565192 0.000000000000000
0.009990557122628 0.005492355256162 0.000000000000000
0.009223403951542 0.006701195223768 0.000000000000000
0.008310792190347 0.007804353339595 0.000000000000000
0.007267114271682 0.008784432141162 0.000000000000000
0.006108829619790 0.009625975200298 0.000000000000000
0.004854205075556 0.010315710880246 0.000000000000000
0.003523026817519 0.010842761637305 0.000000000000000
0.002136288322015 0.011198815566193 0.000000000000000
0.000715859283517 0.011378257483753 0.000000000000000
-0.000715859283517 0.011378257483753 0.000000000000000
-0.002136288322015 0.011198815566193 0.000000000000000
-0.003523026817519 0.010842761637305 0.000000000000000
-0.004854205075556 0.010315710880246 0.000000000000000
-0.006108829619790 0.009625975200298 0.000000000000000
-0.007267114271682 0.008784432141162 0.000000000000000
-0.008310792190347 0.007804353339595 0.000000000000000
-0.009223403951542 0.006701195223768 0.000000000000000
-0.009990557122628 0.005492355256162 0.000000000000000
-0.010600153239820 0.004196897565192 0.000000000000000
-0.011042578608195 0.002835252292515 0.000000000000000
-0.011310855915403 0.001428893397486 0.000000000000000
-0.011400754268046 0.000000000000000 0.000000000000000
-0.011310855915403 -0.001428893397486 0.000000000000000
-0.011042578608195 -0.002835252292515 0.000000000000000
-0.010600153239820 -0.004196897565192 0.000000000000000
-0.009990557122628 -0.005492355256162 0.000000000000000
-0.009223403951542 -0.006701195223768 0.000000000000000
-0.008310792190347 -0.007804353339595 0.000000000000000
-0.007267114271682 -0.008784432141162 0.000000000000000
-0.006108829619790 -0.009625975200298 0.000000000000000
-0.004854205075556 -0.010315710880246 0.000000000000000
-0.003523026817519 -0.010842761637305 0.000000000000000
-0.002136288322015 -0.011198815566193 0.000000000000000
-0.000715859283517 -0.011378257483753 0.000000000000000
0.000715859283517 -0.011378257483753 0.000000000000000
0.002136288322015 -0.011198815566193 0.000000000000000
0.003523026817519 -0.010842761637305 0.000000000000000
0.004854205075556 -0.010315710880246 0.000000000000000
0.006108829619790 -0.009625975200298 0.000000000000000
0.007267114271682 -0.008784432141162 0.000000000000000
0.008310792190347 -0.007804353339595 0.000000000000000
0.009223403951542 -0.006701195223768 0.000000000000000
0.009990557122628 -0.005492355256162 0.000000000000000
0.010600153239820 -0.004196897565192 0.000000000000000
0.011042578608195 -0.002835252292515 0.000000000000000
0.011310855915403 -0.001428893397486 0.000000000000000
0.024099019329368 0.000000000000000 0.000000000000000
0.023908991363928 0.003020408018278 0.000000000000000
0.023341904322139 0.005993182397804 0.000000000000000
0.022406701505413 0.008871440710763 0.000000000000000
0.021118131620831 0.011609791104171 0.000000000000000
0.019496516185229 0.014165048156514 0.000000000000000
0.017567429042731 0.016496913937638 0.000000000000000
0.015361293049956 0.018568613531188 0.000000000000000
0.012912900289392 0.020347474996998 0.000000000000000
0.010260863377471 0.021805444627114 0.000000000000000
0.007447006520545 0.022919529369518 0.000000000000000
0.004515705922164 0.023672159442302 0.000000000000000
0.001513189943838 0.024051465419619 0.000000000000000
-0.001513189943838 0.024051465419619 0.000000000000000
-0.004515705922164 0.023672159442302 0.000000000000000
-0.007447006520545 0.022919529369518 0.000000000000000
-0.010260863377471 0.021805444627114 0.000000000000000
-0.012912900289392 0.020347474996998 0.000000000000000
-0.015361293049956 0.018568613531188 0.000000000000000
-0.017567429042731 0.016496913937638 0.000000000000000
-0.019496516185229 0.014165048156514 0.000000000000000
-0.021118131620831 0.011609791104171 0.000000000000000
-0.022406701505413 0.008871440710763 0.000000000000000
-0.023341904322139 0.005993182397804 0.000000000000000
-0.023908991363928 0.003020408018278 0.000000000000000
-0.024099019329368 0.000000000000000 0.000000000000000
-0.023908991363928 -0.003020408018278 0.000000000000000
-0.023341904322139 -0.005993182397804 0.000000000000000
-0.022406701505413 -0.008871440710763 0.000000000000000
-0.021118131620831 -0.011609791104171 0.000000000000000
[...]
POINT_DATA 1650

SCALARS beta float 1
LOOKUP_TABLE default
9.685756e-01
9.685755e-01
9.685754e-01
9.685754e-01
9.685753e-01
9.685752e-01
9.685752e-01
9.685752e-01
9.685752e-01
9.685752e-01
9.685752e-01
9.685752e-01
9.685752e-01
9.685752e-01
9.685752e-01
9.685752e-01
9.685752e-01
9.685752e-01
9.685752e-01
9.685753e-01
9.685753e-01
9.685753e-01
9.685754e-01
9.685754e-01
9.685755e-01
9.685756e-01
9.685757e-01
9.685758e-01
9.685760e-01
9.685761e-01
9.685762e-01
9.685764e-01
9.685765e-01
9.685766e-01
9.685767e-01
9.685768e-01
9.685769e-01
9.685769e-01
9.685769e-01
9.685769e-01
9.685769e-01
9.685768e-01
9.685767e-01
9.685766e-01
9.685765e-01
9.685763e-01
9.685762e-01
9.685761e-01
9.685759e-01
9.685758e-01
9.682903e-01
9.682796e-01
9.682884e-01
9.683159e-01
9.683602e-01
9.684183e-01
9.684864e-01
9.685600e-01
9.686343e-01
9.687046e-01
9.687664e-01
9.688157e-01
9.688494e-01
9.688653e-01
9.688626e-01
9.688413e-01
9.688028e-01
9.687497e-01
9.686853e-01
9.686137e-01
9.685396e-01
9.684677e-01
9.684029e-01
9.683493e-01
9.683105e-01
9.682891e-01
9.682868e-01
9.683038e-01
9.683394e-01
9.683913e-01
9.684565e-01
9.685311e-01
9.686104e-01
9.686897e-01
9.687641e-01
9.688290e-01
9.688805e-01
9.689153e-01
9.689314e-01
9.689278e-01
9.689046e-01
9.688633e-01
9.688063e-01
9.687371e-01
9.686600e-01
9.685796e-01
9.685009e-01
9.684285e-01
9.683670e-01
9.683200e-01
9.652491e-01
9.651587e-01
9.652971e-01
9.656543e-01
9.662048e-01
9.669107e-01
9.677239e-01
9.685907e-01
9.694550e-01
9.702627e-01
9.709647e-01
9.715196e-01
9.718956e-01
9.720716e-01
9.720380e-01
9.717965e-01
9.713606e-01
9.707551e-01
9.700150e-01
9.691846e-01
9.683148e-01
9.674610e-01
9.666787e-01
9.660205e-01
9.655313e-01
9.652451e-01
9.651825e-01
9.653482e-01
9.657315e-01
9.663064e-01
9.670343e-01
9.678669e-01
9.687501e-01
9.696278e-01
9.704460e-01
9.711555e-01
9.717153e-01
9.720935e-01
9.722694e-01
9.722332e-01
9.719867e-01
9.715435e-01
9.709280e-01
9.701754e-01
9.693296e-01
9.684418e-01
9.675673e-01
9.667620e-01
9.660786e-01
9.655627e-01
9.528055e-01
9.524069e-01
9.531276e-01
9.549053e-01
9.575898e-01
9.609597e-01
9.647460e-01
9.686619e-01
9.724333e-01
9.758255e-01
9.786601e-01
9.808197e-01
9.822394e-01
9.828912e-01
9.827662e-01
9.818655e-01
9.802021e-01
9.778135e-01
9.747800e-01
9.712392e-01
9.673900e-01
9.634838e-01
9.598034e-01
9.566341e-01
9.542323e-01
9.527979e-01
9.524516e-01
9.532232e-01
9.550479e-01
9.577733e-01
9.611764e-01
9.649873e-01
9.689192e-01
9.726987e-01
9.760926e-01
9.789244e-01
9.810789e-01
9.824933e-01
9.831409e-01
9.830134e-01
9.821117e-01
9.804475e-01
9.780567e-01
9.750176e-01
9.714657e-01
9.675982e-01
9.636658e-01
9.599511e-01
9.567402e-01
9.542911e-01
9.167546e-01
9.154982e-01
9.179910e-01
9.239935e-01
9.329305e-01
9.439304e-01
9.559033e-01
9.676687e-01
9.781350e-01
9.865006e-01
9.924182e-01
9.960400e-01
9.978885e-01
9.985707e-01
9.984527e-01
9.974603e-01
9.951164e-01
9.907967e-01
9.840644e-01
9.749204e-01
9.638786e-01
9.518709e-01
9.400572e-01
9.296188e-01
9.215900e-01
9.167463e-01
9.155422e-01
9.180853e-01
9.241324e-01
9.331045e-01
9.441272e-01
9.561086e-01
9.678680e-01
9.783154e-01
9.866527e-01
9.925378e-01
9.961290e-01
9.979543e-01
9.986247e-01
9.985082e-01
9.975295e-01
9.952084e-01
9.909156e-01
9.842080e-01
9.750815e-01
9.640454e-01
9.520297e-01
9.401941e-01
9.297213e-01
9.216484e-01
8.330326e-01
8.301195e-01
8.363707e-01
8.513028e-01
8.737129e-01
9.015495e-01
9.318030e-01
9.605760e-01
9.835579e-01
9.970827e-01
9.996616e-01
9.933178e-01
9.835517e-01
9.771102e-01
9.783147e-01
9.863831e-01
9.958861e-01
9.999896e-01
9.939958e-01
9.770057e-01
9.514281e-01
9.214139e-01
8.913532e-01
8.649615e-01
8.449475e-01
8.330336e-01
8.301051e-01
8.363415e-01
8.512609e-01
8.736617e-01
9.014939e-01
9.317489e-01
9.605297e-01
9.835254e-01
9.970682e-01
9.996667e-01
9.933409e-01
9.835881e-01
9.771530e-01
9.783561e-01
9.864155e-01
9.959034e-01
9.999888e-01
9.939770e-01
9.769724e-01
9.513863e-01
9.213704e-01
8.913142e-01
8.649322e-01
8.449314e-01
6.840779e-01
6.793631e-01
6.902908e-01
7.165542e-01
7.572994e-01
8.104504e-01
8.715951e-01
9.326058e-01
9.807410e-01
9.999989e-01
9.772392e-01
9.136014e-01
8.343694e-01
7.826583e-01
7.911710e-01
8.546699e-01
9.342047e-01
9.884120e-01
9.981707e-01
9.677605e-01
9.128398e-01
8.495537e-01
7.896777e-01
7.401772e-01
7.045097e-01
6.840854e-01
6.793189e-01
6.901960e-01
7.164126e-01
7.571192e-01
8.102464e-01
8.713911e-01
9.324346e-01
9.806399e-01
9.999995e-01
9.773528e-01
9.138098e-01
8.346336e-01
7.829408e-01
7.914466e-01
8.549129e-01
9.343793e-01
9.884874e-01
9.981415e-01
9.676497e-01
9.126848e-01
8.493911e-01
7.895354e-01
7.400724e-01
7.044515e-01
4.915085e-01
4.862831e-01
4.996063e-01
5.318982e-01
5.841532e-01
6.570832e-01
7.491932e-01
8.530155e-01
9.490445e-01
9.994742e-01
9.513152e-01
7.682413e-01
4.965184e-01
2.959794e-01
3.241641e-01
5.593258e-01
8.244560e-01
9.763204e-01
9.926994e-01
9.217754e-01
8.172596e-01
7.133933e-01
6.260122e-01
5.600773e-01
5.156916e-01
4.915038e-01
4.863076e-01
4.996592e-01
5.319780e-01
5.842572e-01
6.572063e-01
7.493254e-01
8.531381e-01
9.491280e-01
9.994833e-01
9.512317e-01
7.680979e-01
4.963872e-01
2.958883e-01
3.240619e-01
5.591817e-01
8.243243e-01
9.762649e-01
9.927294e-01
9.218618e-01
8.173681e-01
7.134990e-01
6.261005e-01
5.601403e-01
5.157258e-01
3.092386e-01
3.051213e-01
3.172433e-01
3.465897e-01
3.957091e-01
4.683857e-01
5.684773e-01
6.965257e-01
8.416400e-01
9.662801e-01
9.899489e-01
8.083117e-01
4.154411e-01
6.560508e-02
1.048105e-01
4.948359e-01
8.649678e-01
9.991800e-01
9.387146e-01
7.967965e-01
6.489992e-01
5.260711e-01
4.342565e-01
3.706023e-01
3.302648e-01
3.092374e-01
3.051269e-01
3.172567e-01
3.466109e-01
3.957373e-01
4.684225e-01
5.685225e-01
6.965725e-01
8.416800e-01
9.663026e-01
9.899359e-01
8.082707e-01
4.154119e-01
6.559841e-02
1.048020e-01
4.947933e-01
8.649271e-01
9.991766e-01
9.387403e-01
7.968368e-01
6.490402e-01
5.261054e-01
4.342828e-01
3.706199e-01
3.302735e-01
1.749757e-01
1.724303e-01
1.813678e-01
2.028097e-01
2.394344e-01
2.956858e-01
3.776557e-01
4.918438e-01
6.407510e-01
8.118062e-01
9.584169e-01
9.928955e-01
8.563221e-01
6.729215e-01
6.874514e-01
8.814896e-01
9.986505e-01
9.352918e-01
7.693237e-01
5.922784e-01
4.465930e-01
3.399307e-01
2.666293e-01
2.187111e-01
1.896220e-01
1.749776e-01
1.724192e-01
1.813465e-01
2.027743e-01
2.393777e-01
2.956129e-01
3.775686e-01
4.917283e-01
6.406140e-01
8.116909e-01
9.583601e-01
9.929208e-01
8.564252e-01
6.730298e-01
6.875712e-01
8.815706e-01
9.986594e-01
9.352191e-01
7.692077e-01
5.921743e-01
4.465055e-01
3.398602e-01
2.665805e-01
2.186817e-01
1.896069e-01
9.178199e-02
9.043290e-02
9.617512e-02
1.097678e-01
1.331848e-01
1.697809e-01
2.245083e-01
3.037664e-01
4.140052e-01
5.573570e-01
7.223446e-01
8.743917e-01
9.682290e-01
9.962492e-01
9.958375e-01
9.642055e-01
8.605124e-01
6.960212e-01
5.226639e-01
3.775825e-01
2.707471e-01
1.974100e-01
1.491728e-01
1.186618e-01
1.006240e-01
9.178047e-02
9.043722e-02
9.619033e-02
1.097913e-01
1.332100e-01
1.698271e-01
2.245816e-01
3.038449e-01
4.141034e-01
5.574801e-01
7.224693e-01
8.744896e-01
9.682747e-01
9.962659e-01
9.958524e-01
9.642584e-01
8.606292e-01
6.961161e-01
5.227587e-01
3.776836e-01
2.708135e-01
1.974528e-01
1.492018e-01
1.186796e-01
1.006332e-01
4.557833e-02
4.494227e-02
4.832837e-02
5.621186e-02
6.979349e-02
9.107762e-02
1.230302e-01
1.695559e-01
2.350367e-01
3.228280e-01
4.314723e-01
5.493217e-01
6.525052e-01
7.132380e-01
7.139104e-01
6.523549e-01
5.438346e-01
4.182563e-01
3.035995e-01
2.136452e-01
1.494394e-01
1.061719e-01
7.814104e-02
6.066426e-02
5.047838e-02
4.557904e-02
4.493852e-02
4.832397e-02
5.620426e-02
6.977372e-02
9.106074e-02
1.230037e-01
1.694989e-01
2.349914e-01
3.227601e-01
4.313604e-01
5.492398e-01
6.524091e-01
7.131452e-01
7.138043e-01
6.522577e-01
5.437737e-01
4.181519e-01
3.035358e-01
2.136132e-01
1.493979e-01
1.061516e-01
7.813063e-02
6.065468e-02
5.047476e-02
2.168227e-02
2.140107e-02
2.326539e-02
2.754326e-02
3.488481e-02
4.633369e-02
6.335786e-02
8.778453e-02
1.215934e-01
1.663260e-01
2.215924e-01
2.827136e-01
3.387687e-01
3.741606e-01
3.758950e-01
3.420396e-01
2.836231e-01
2.176931e-01
1.579804e-01
1.108909e-01
7.695122e-02
5.390096e-02
3.892662e-02
2.961683e-02
2.423251e-02
2.168212e-02
2.140158e-02
2.326796e-02
2.754778e-02
3.488910e-02
4.634555e-02
6.337149e-02
8.779767e-02
1.216283e-01
1.663629e-01
2.216262e-01
2.827726e-01
3.388312e-01
3.742248e-01
3.759535e-01
3.420952e-01
2.836835e-01
2.177260e-01
1.580120e-01
1.109189e-01
7.696032e-02
5.391108e-02
3.893426e-02
2.961905e-02
2.423414e-02
9.962115e-03
9.845414e-03
1.081591e-02
1.301227e-02
1.675912e-02
2.255072e-02
3.101700e-02
4.286938e-02
5.880573e-02
7.925928e-02
1.039056e-01
1.307744e-01
1.553593e-01
1.711529e-01
1.724680e-01
1.582081e-01
1.328612e-01
1.035392e-01
7.622561e-02
5.401040e-02
3.754059e-02
2.612383e-02
1.861472e-02
1.392789e-02
1.122725e-02
9.962113e-03
9.845257e-03
1.081474e-02
1.301051e-02
1.675690e-02
2.254592e-02
3.101064e-02
4.286307e-02
5.879103e-02
7.924000e-02
1.038913e-01
1.307436e-01
1.553293e-01
1.711197e-01
1.724367e-01
1.581814e-01
1.328311e-01
1.035255e-01
7.620917e-02
5.399917e-02
3.753626e-02
2.611929e-02
1.861161e-02
1.392688e-02
1.122658e-02
4.472297e-03
4.425179e-03
4.902769e-03
5.972363e-03
7.786220e-03
1.055615e-02
1.452488e-02
1.992700e-02
2.694564e-02
3.566218e-02
4.587947e-02
5.680659e-02
6.672267e-02
7.313653e-02
7.384918e-02
6.836783e-02
5.829711e-02
4.629967e-02
3.473246e-02
2.497834e-02
1.749827e-02
1.217028e-02
8.605788e-03
6.363880e-03
5.072217e-03
4.472134e-03
4.425512e-03
4.902970e-03
5.973348e-03
7.787299e-03
1.055798e-02
1.452808e-02
1.992962e-02
2.695260e-02
3.566909e-02
4.588818e-02
5.681754e-02
6.673704e-02
7.315004e-02
7.386258e-02
6.838187e-02
5.830720e-02
4.630801e-02
3.473973e-02
2.498267e-02
1.750074e-02
1.217252e-02
8.606822e-03
6.364613e-03
5.072385e-03
2.001419e-03
1.982635e-03
2.207547e-03
2.705974e-03
3.544673e-03
4.807987e-03
6.578103e-03
8.918652e-03
1.185773e-02
1.539656e-02
1.944794e-02
2.371795e-02
2.757120e-02
3.007378e-02
3.040019e-02
2.835582e-02
2.451183e-02
1.982522e-02
1.516982e-02
1.110653e-02
7.879305e-03
5.513672e-03
3.898448e-03
2.870580e-03
2.276439e-03
2.001336e-03
1.982773e-03
2.207087e-03
2.705889e-03
3.544140e-03
4.806807e-03
6.577787e-03
8.916100e-03
1.185590e-02
1.539379e-02
1.944307e-02
2.371431e-02
2.756578e-02
3.006715e-02
3.039448e-02
2.835149e-02
2.450695e-02
1.982082e-02
1.516880e-02
1.110336e-02
7.878578e-03
5.513150e-03
3.897556e-03
2.870532e-03
2.276257e-03
9.203886e-04
9.125469e-04
1.015689e-03
1.241403e-03
1.617110e-03
2.174023e-03
2.935271e-03
3.912405e-03
5.099372e-03
6.490215e-03
8.052852e-03
9.682016e-03
1.115079e-02
1.210554e-02
1.224074e-02
1.148561e-02
1.004945e-02
8.267694e-03
6.456943e-03
4.828445e-03
3.488535e-03
2.476331e-03
1.768964e-03
1.311239e-03
1.044039e-03
9.203778e-04
9.129110e-04
1.015359e-03
1.241606e-03
1.617592e-03
2.173857e-03
2.936103e-03
3.912289e-03
5.100927e-03
6.491263e-03
8.052216e-03
9.686087e-03
1.115128e-02
1.210645e-02
1.224311e-02
1.148883e-02
1.004863e-02
8.268889e-03
6.460011e-03
4.826998e-03
3.489424e-03
2.477167e-03
1.768690e-03
1.311274e-03
1.044322e-03
4.512421e-04
4.477453e-04
4.952695e-04
5.976572e-04
7.645647e-04
1.007700e-03
1.331678e-03
1.732948e-03
2.206018e-03
2.746504e-03
3.342349e-03
3.958824e-03
4.514114e-03
4.874550e-03
4.926228e-03
4.648710e-03
4.115105e-03
3.444961e-03
2.751986e-03
2.110592e-03
1.563886e-03
1.136779e-03
8.306767e-04
6.279620e-04
5.072798e-04
4.512361e-04
4.481655e-04
4.949702e-04
5.973607e-04
7.651055e-04
1.007583e-03
1.330952e-03
1.733303e-03
2.206729e-03
2.745032e-03
3.341839e-03
3.960867e-03
4.512487e-03
4.872717e-03
4.928268e-03
4.648649e-03
4.112799e-03
3.445833e-03
2.752821e-03
2.109311e-03
1.563780e-03
1.137531e-03
8.302844e-04
6.275996e-04
5.077327e-04
2.436826e-04
2.421468e-04
2.647333e-04
3.125165e-04
3.885360e-04
4.966875e-04
6.371046e-04
8.045223e-04
9.955307e-04
1.207887e-03
1.437912e-03
1.673768e-03
1.883952e-03
2.020077e-03
2.040427e-03
1.937688e-03
1.737082e-03
1.483113e-03
1.215905e-03
9.609185e-04
7.356596e-04
5.530040e-04
4.180113e-04
3.262477e-04
2.701958e-04
2.436708e-04
2.423222e-04
2.646388e-04
3.123042e-04
3.887661e-04
4.967643e-04
6.364714e-04
8.048868e-04
9.957271e-04
1.206986e-03
1.437957e-03
1.674250e-03
1.883298e-03
2.019176e-03
2.041293e-03
1.937285e-03
1.736237e-03
1.483424e-03
1.216010e-03
9.605342e-04
7.354666e-04
5.532924e-04
4.178943e-04
3.260409e-04
2.703891e-04
1.474260e-04
1.468294e-04
1.579809e-04
1.813458e-04
2.180582e-04
2.684467e-04
3.316473e-04
4.054386e-04
4.859460e-04
5.723025e-04
6.646996e-04
7.577805e-04
8.388867e-04
8.913768e-04
9.004690e-04
8.607386e-04
7.831838e-04
6.844131e-04
5.775267e-04
4.718722e-04
3.752742e-04
2.941138e-04
2.315529e-04
1.878684e-04
1.607546e-04
1.474423e-04
1.466855e-04
1.580597e-04
1.815015e-04
2.179227e-04
2.684398e-04
3.320868e-04
4.052866e-04
4.858421e-04
5.728682e-04
6.648206e-04
7.576012e-04
8.393838e-04
8.919714e-04
9.000514e-04
8.610907e-04
7.837601e-04
6.843212e-04
5.775404e-04
4.721512e-04
3.754295e-04
2.939422e-04
2.316656e-04
1.880418e-04
1.605950e-04
9.955076e-05
9.915148e-05
1.049918e-04
1.172455e-04
1.360260e-04
1.611712e-04
1.917445e-04
2.259895e-04
2.626898e-04
3.006592e-04
3.392814e-04
3.774789e-04
4.110317e-04
4.325373e-04
4.356707e-04
4.199754e-04
3.890272e-04
3.483418e-04
3.027053e-04
2.560373e-04
2.119525e-04
1.734325e-04
1.427057e-04
1.204407e-04
1.063066e-04
9.954534e-05
9.920009e-05
1.049557e-04
1.171755e-04
1.360548e-04
1.611904e-04
1.915749e-04
2.260091e-04
2.626691e-04
3.004407e-04
3.392178e-04
3.774819e-04
4.108622e-04
4.323084e-04
4.357300e-04
4.197650e-04
3.888697e-04
3.483337e-04
3.026258e-04
2.559704e-04
2.118617e-04
1.734717e-04
1.426764e-04
1.203569e-04
1.063608e-04
7.330424e-05
7.313498e-05
7.641606e-05
8.313546e-05
9.334206e-05
1.067481e-04
1.226045e-04
1.400147e-04
1.578311e-04
1.756174e-04
1.931849e-04
2.099803e-04
2.243668e-04
2.335185e-04
2.351244e-04
2.285565e-04
2.153327e-04
1.973482e-04
1.765035e-04
1.544063e-04
1.325994e-04
1.129548e-04
9.679177e-05
8.481503e-05
7.710716e-05
7.330507e-05
7.312701e-05
7.641369e-05
8.314997e-05
9.334853e-05
1.067141e-04
1.226416e-04
1.399925e-04
1.578373e-04
1.756407e-04
1.931599e-04
2.099876e-04
2.243635e-04
2.335395e-04
2.350940e-04
2.286165e-04
2.152845e-04
1.973355e-04
1.765599e-04
1.543576e-04
1.326329e-04
1.129539e-04
9.676614e-05
8.484085e-05
7.709572e-05
5.757936e-05
5.749527e-05
5.943955e-05
6.335323e-05
6.914194e-05
7.668871e-05
8.560423e-05
9.501473e-05
1.043527e-04
1.132640e-04
1.218107e-04
1.297277e-04
1.361877e-04
1.403355e-04
1.412220e-04
1.384436e-04
1.322991e-04
1.238201e-04
1.136750e-04
1.023637e-04
9.082173e-05
8.003478e-05
7.101537e-05
6.427262e-05
5.980999e-05
5.757850e-05
5.749090e-05
5.946283e-05
6.336365e-05
6.913976e-05
7.673610e-05
8.561654e-05
9.506764e-05
1.043761e-04
1.133177e-04
1.218896e-04
1.297463e-04
1.362621e-04
1.404024e-04
1.412843e-04
1.384611e-04
1.324116e-04
1.238710e-04
1.136527e-04
1.024613e-04
9.082714e-05
8.003498e-05
7.106498e-05
6.427203e-05
5.981213e-05
4.729827e-05
4.723345e-05
4.835113e-05
5.068585e-05
5.425513e-05
5.877305e-05
6.386226e-05
6.929681e-05
7.455285e-05
7.938814e-05
8.365007e-05
8.743518e-05
9.070148e-05
9.276191e-05
9.312795e-05
9.177253e-05
8.899979e-05
8.481466e-05
7.940033e-05
7.324298e-05
6.678024e-05
6.065131e-05
5.532775e-05
5.120677e-05
4.856463e-05
4.729926e-05
4.723859e-05
4.832572e-05
5.068026e-05
5.424876e-05
5.873192e-05
6.386034e-05
6.923754e-05
7.453254e-05
7.934409e-05
8.357652e-05
8.742249e-05
9.064031e-05
9.270181e-05
9.307017e-05
9.175566e-05
8.891612e-05
8.476067e-05
7.942176e-05
7.315677e-05
6.677112e-05
6.065265e-05
5.528250e-05
5.120816e-05
4.856046e-05
3.971561e-05
3.969353e-05
4.046412e-05
4.193914e-05
4.401502e-05
4.677407e-05
5.001992e-05
5.320201e-05
5.616919e-05
5.879074e-05
6.113793e-05
6.314950e-05
6.462733e-05
6.558985e-05
6.591374e-05
6.540846e-05
6.390943e-05
6.166450e-05
5.886167e-05
5.543364e-05
5.163679e-05
4.788076e-05
4.468820e-05
4.227178e-05
4.058427e-05
3.971557e-05
3.969474e-05
4.047590e-05
4.191697e-05
4.402284e-05
4.678724e-05
4.997248e-05
5.323569e-05
5.615830e-05
5.876966e-05
6.115673e-05
6.312640e-05
6.461810e-05
6.558273e-05
6.592952e-05
6.537549e-05
6.390965e-05
6.168541e-05
5.881388e-05
5.546351e-05
5.161908e-05
4.787196e-05
4.470533e-05
4.225033e-05
4.059608e-05
3.360306e-05
3.357398e-05
3.394692e-05
3.483930e-05
3.630390e-05
3.800934e-05
3.981527e-05
4.178721e-05
4.359721e-05
4.507624e-05
4.622841e-05
4.718450e-05
4.802094e-05
4.857571e-05
4.868701e-05
4.834201e-05
4.771820e-05
4.668322e-05
4.503770e-05
4.300771e-05
4.083854e-05
3.869918e-05
3.666750e-05
3.504675e-05
3.407381e-05
3.360243e-05
3.355506e-05
3.395568e-05
3.489215e-05
3.628792e-05
3.802170e-05
3.990948e-05
4.177957e-05
4.362182e-05
4.516147e-05
4.626188e-05
4.721692e-05
4.809488e-05
4.864493e-05
4.869509e-05
4.840990e-05
4.779559e-05
4.668892e-05
4.509230e-05
4.304224e-05
4.088151e-05
3.869866e-05
3.668656e-05
3.509300e-05
3.404374e-05
2.748668e-05
2.745476e-05
2.783952e-05
2.842517e-05
2.912999e-05
3.019689e-05
3.147558e-05
3.256240e-05
3.346786e-05
3.429976e-05
3.496700e-05
3.544282e-05
3.579323e-05
3.599472e-05
3.609746e-05
3.608907e-05
3.573891e-05
3.506224e-05
3.430023e-05
3.332112e-05
3.197853e-05
3.056307e-05
2.945932e-05
2.857810e-05
2.784439e-05
2.748554e-05
2.750897e-05
2.781257e-05
2.836158e-05
2.918200e-05
3.018987e-05
3.137714e-05
3.258290e-05
3.349085e-05
3.420321e-05
3.493570e-05
3.547821e-05
3.571668e-05
3.592399e-05
3.613609e-05
3.605600e-05
3.564010e-05
3.508192e-05
3.430486e-05
3.324877e-05
3.194975e-05
3.061507e-05
2.941432e-05
2.852028e-05
2.790908e-05
2.081962e-05
2.084402e-05
2.086445e-05
2.119576e-05
2.183034e-05
2.239926e-05
2.291813e-05
2.357041e-05
2.420126e-05
2.451906e-05
2.476108e-05
2.501082e-05
2.514278e-05
2.529188e-05
2.535961e-05
2.523697e-05
2.510969e-05
2.501009e-05
2.456456e-05
2.385347e-05
2.329337e-05
2.269476e-05
2.188947e-05
2.127781e-05
2.100719e-05
2.082534e-05
2.074064e-05
2.090917e-05
2.124865e-05
2.171971e-05
2.237742e-05
2.298492e-05
2.350317e-05
2.408845e-05
2.458378e-05
2.474569e-05
2.485810e-05
2.517216e-05
2.531916e-05
2.522462e-05
2.518414e-05
2.518936e-05
2.492391e-05
2.445029e-05
2.394627e-05
2.326977e-05
2.256260e-05
2.195135e-05
2.132910e-05
2.090031e-05
1.319145e-05
1.312068e-05
1.337142e-05
1.352120e-05
1.361493e-05
1.394814e-05
1.437010e-05
1.461152e-05
1.471178e-05
1.497748e-05
1.510315e-05
1.509964e-05
1.520681e-05
1.521229e-05
1.518548e-05
1.527755e-05
1.528758e-05
1.503322e-05
1.491349e-05
1.488674e-05
1.443896e-05
1.398850e-05
1.382309e-05
1.359146e-05
1.328127e-05
1.318118e-05
1.326411e-05
1.329866e-05
1.347383e-05
1.376165e-05
1.397343e-05
1.431201e-05
1.469816e-05
1.486674e-05
1.491601e-05
1.513125e-05
1.530940e-05
1.519040e-05
1.518918e-05
1.536602e-05
1.537174e-05
1.519169e-05
1.514923e-05
1.509818e-05
1.474374e-05
1.449930e-05
1.416668e-05
1.373327e-05
1.354800e-05
1.341168e-05
6.192193e-06
6.255013e-06
6.111867e-06
6.207823e-06
6.432636e-06
6.491134e-06
6.505467e-06
6.648928e-06
6.838516e-06
6.771998e-06
6.792535e-06
6.880678e-06
6.821163e-06
6.853190e-06
6.926145e-06
6.848377e-06
6.779458e-06
6.940351e-06
6.877827e-06
6.587925e-06
6.644726e-06
6.618272e-06
6.338578e-06
6.218483e-06
6.251414e-06
6.203653e-06
6.104979e-06
6.215957e-06
6.271070e-06
6.305821e-06
6.510747e-06
6.606191e-06
6.608776e-06
6.738741e-06
6.892855e-06
6.826542e-06
6.737649e-06
6.899936e-06
6.947936e-06
6.808761e-06
6.811677e-06
6.951442e-06
6.875716e-06
6.725190e-06
6.808953e-06
6.604761e-06
6.468452e-06
6.468126e-06
6.266637e-06
6.134340e-06
1.580006e-06
1.522588e-06
1.710219e-06
1.695788e-06
1.588478e-06
1.669865e-06
1.803811e-06
1.782147e-06
1.687606e-06
1.799969e-06
1.820098e-06
1.763959e-06
1.814365e-06
1.788182e-06
1.740162e-06
1.828660e-06
1.885565e-06
1.696841e-06
1.711307e-06
1.911421e-06
1.722108e-06
1.604468e-06
1.723948e-06
1.715068e-06
1.589698e-06
1.568836e-06
1.655816e-06
1.591762e-06
1.614076e-06
1.678890e-06
1.610356e-06
1.658339e-06
1.771786e-06