# vtk DataFile Version 3.0
Tensor
ASCII
DATASET UNSTRUCTURED_GRID
POINTS 1650 float
0.000087556026434 0.000000000000000 0.000000000000000
0.000086865621014 0.000010973679911 0.000000000000000
0.000084805292859 0.000021774298334 0.000000000000000
0.000081407534576 0.000032231523066 0.000000000000000
0.000076725930842 0.000042180437424 0.000000000000000
0.000070834313345 0.000051464141087 0.000000000000000
0.000063825596412 0.000059936224502 0.000000000000000
0.000055810311696 0.000067463077852 0.000000000000000
0.000046914865025 0.000073925998164 0.000000000000000
0.000037279542907 0.000079223061324 0.000000000000000
0.000027056300128 0.000083270729481 0.000000000000000
0.000016406363333 0.000086005168491 0.000000000000000
0.000005497688388 0.000087383254616 0.000000000000000
-0.000005497688388 0.000087383254616 0.000000000000000
-0.000016406363333 0.000086005168491 0.000000000000000
-0.000027056300128 0.000083270729481 0.000000000000000
-0.000037279542907 0.000079223061324 0.000000000000000
-0.000046914865025 0.000073925998164 0.000000000000000
-0.000055810311696 0.000067463077852 0.000000000000000
-0.000063825596412 0.000059936224502 0.000000000000000
-0.000070834313345 0.000051464141087 0.000000000000000
-0.000076725930842 0.000042180437424 0.000000000000000
-0.000081407534576 0.000032231523066 0.000000000000000
-0.000084805292859 0.000021774298334 0.000000000000000
-0.000086865621014 0.000010973679911 0.000000000000000
-0.000087556026434 0.000000000000000 0.000000000000000
-0.000086865621014 -0.000010973679911 0.000000000000000
-0.000084805292859 -0.000021774298334 0.000000000000000
-0.000081407534576 -0.000032231523066 0.000000000000000
-0.000076725930842 -0.000042180437424 0.000000000000000
-0.000070834313345 -0.000051464141087 0.000000000000000
-0.000063825596412 -0.000059936224502 0.000000000000000
-0.000055810311696 -0.000067463077852 0.000000000000000
-0.000046914865025 -0.000073925998164 0.000000000000000
-0.000037279542907 -0.000079223061324 0.000000000000000
-0.000027056300128 -0.000083270729481 0.000000000000000
-0.000016406363333 -0.000086005168491 0.000000000000000
-0.000005497688388 -0.000087383254616 0.000000000000000
0.000005497688388 -0.000087383254616 0.000000000000000
0.000016406363333 -0.000086005168491 0.000000000000000
0.000027056300128 -0.000083270729481 0.000000000000000
0.000037279542907 -0.000079223061324 0.000000000000000
0.000046914865025 -0.000073925998164 0.000000000000000
0.000055810311696 -0.000067463077852 0.000000000000000
0.000063825596412 -0.000059936224502 0.000000000000000
0.000070834313345 -0.000051464141087 0.000000000000000
0.000076725930842 -0.000042180437424 0.000000000000000
0.000081407534576 -0.000032231523066 0.000000000000000
0.000084805292859 -0.000021774298334 0.000000000000000
0.000086865621014 -0.000010973679911 0.000000000000000
0.003371443549894 0.000000000000000 0.000000000000000
0.003344858710501 0.000422553921888 0.000000000000000
0.003265523451123 0.000838443916006 0.000000000000000
0.003134688936191 0.001241111148706 0.000000000000000
0.002954418504162 0.001624205317188 0.000000000000000
0.002727555127440 0.001981684797564 0.000000000000000
0.002457676576995 0.002307911924882 0.000000000000000
0.002149038998786 0.002597741902464 0.000000000000000
0.001806509791792 0.002846603938429 0.000000000000000
0.001435490846225 0.003050573329806 0.000000000000000
0.001041833352493 0.003206433357448 0.000000000000000
0.000631745524431 0.003311726015612 0.000000000000000
0.000211694692062 0.003364790776181 0.000000000000000
-0.000211694692062 0.003364790776181 0.000000000000000
-0.000631745524431 0.003311726015612 0.000000000000000
-0.001041833352493 0.003206433357448 0.000000000000000
-0.001435490846225 0.003050573329806 0.000000000000000
-0.001806509791792 0.002846603938429 0.000000000000000
-0.002149038998786 0.002597741902464 0.000000000000000
-0.002457676576995 0.002307911924882 0.000000000000000
-0.002727555127440 0.001981684797564 0.000000000000000
-0.002954418504162 0.001624205317188 0.000000000000000
-0.003134688936191 0.001241111148706 0.000000000000000
-0.003265523451123 0.000838443916006 0.000000000000000
-0.003344858710501 0.000422553921888 0.000000000000000
-0.003371443549894 0.000000000000000 0.000000000000000
-0.003344858710501 -0.000422553921888 0.000000000000000
-0.003265523451123 -0.000838443916006 0.000000000000000
-0.003134688936191 -0.001241111148706 0.000000000000000
-0.002954418504162 -0.001624205317188 0.000000000000000
-0.002727555127440 -0.001981684797564 0.000000000000000
-0.002457676576995 -0.002307911924882 0.000000000000000
-0.002149038998786 -0.002597741902464 0.000000000000000
-0.001806509791792 -0.002846603938429 0.000000000000000
-0.001435490846225 -0.003050573329806 0.000000000000000
-0.001041833352493 -0.003206433357448 0.000000000000000
-0.000631745524431 -0.003311726015612 0.000000000000000
-0.000211694692062 -0.003364790776181 0.000000000000000
0.000211694692062 -0.003364790776181 0.000000000000000
0.000631745524431 -0.003311726015612 0.000000000000000
0.001041833352493 -0.003206433357448 0.000000000000000
0.001435490846225 -0.003050573329806 0.000000000000000
0.001806509791792 -0.002846603938429 0.000000000000000
0.002149038998786 -0.002597741902464 0.000000000000000
0.002457676576995 -0.002307911924882 0.000000000000000
0.002727555127440 -0.001981684797564 0.000000000000000
0.002954418504162 -0.001624205317188 0.000000000000000
0.003134688936191 -0.001241111148706 0.000000000000000
0.003265523451123 -0.000838443916006 0.000000000000000
0.003344858710501 -0.000422553921888 0.000000000000000
0.011400754268046 0.000000000000000 0.000000000000000
0.011310855915403 0.001428893397486 0.000000000000000
0.011042578608195 0.002835252292515 0.000000000000000
0.010600153239820 0.004196897565192 0.000000000000000
0.009990557122628 0.005492355256162 0.000000000000000
0.009223403951542 0.006701195223768 0.000000000000000
0.008310792190347 0.007804353339595 0.000000000000000
0.007267114271682 0.008784432141162 0.000000000000000
0.006108829619790 0.009625975200298 0.000000000000000
0.004854205075556 0.010315710880246 0.000000000000000
0.003523026817519 0.010842761637305 0.000000000000000
0.002136288322015 0.011198815566193 0.000000000000000
0.000715859283517 0.011378257483753 0.000000000000000
-0.000715859283517 0.011378257483753 0.000000000000000
-0.002136288322015 0.011198815566193 0.000000000000000
-0.003523026817519 0.010842761637305 0.000000000000000
-0.004854205075556 0.010315710880246 0.000000000000000
-0.006108829619790 0.009625975200298 0.000000000000000
-0.007267114271682 0.008784432141162 0.000000000000000
-0.008310792190347 0.007804353339595 0.000000000000000
-0.009223403951542 0.006701195223768 0.000000000000000
-0.009990557122628 0.005492355256162 0.000000000000000
-0.010600153239820 0.004196897565192 0.000000000000000
-0.011042578608195 0.002835252292515 0.000000000000000
-0.011310855915403 0.001428893397486 0.000000000000000
-0.011400754268046 0.000000000000000 0.000000000000000
-0.011310855915403 -0.001428893397486 0.000000000000000
-0.011042578608195 -0.002835252292515 0.000000000000000
-0.010600153239820 -0.004196897565192 0.000000000000000
-0.009990557122628 -0.005492355256162 0.000000000000000
-0.009223403951542 -0.006701195223768 0.000000000000000
-0.008310792190347 -0.007804353339595 0.000000000000000
-0.007267114271682 -0.008784432141162 0.000000000000000
-0.006108829619790 -0.009625975200298 0.000000000000000
-0.004854205075556 -0.010315710880246 0.000000000000000
-0.003523026817519 -0.010842761637305 0.000000000000000
-0.002136288322015 -0.011198815566193 0.000000000000000
-0.000715859283517 -0.011378257483753 0.000000000000000
0.000715859283517 -0.011378257483753 0.000000000000000
0.002136288322015 -0.011198815566193 0.000000000000000
0.003523026817519 -0.010842761637305 0.000000000000000
0.004854205075556 -0.010315710880246 0.000000000000000
0.006108829619790 -0.009625975200298 0.000000000000000
0.007267114271682 -0.008784432141162 0.000000000000000
0.008310792190347 -0.007804353339595 0.000000000000000
0.009223403951542 -0.006701195223768 0.000000000000000
0.009990557122628 -0.005492355256162 0.000000000000000
0.010600153239820 -0.004196897565192 0.000000000000000
0.011042578608195 -0.002835252292515 0.000000000000000
0.011310855915403 -0.001428893397486 0.000000000000000
0.024099019329368 0.000000000000000 0.000000000000000
0.023908991363928 0.003020408018278 0.000000000000000
0.023341904322139 0.005993182397804 0.000000000000000
0.022406701505413 0.008871440710763 0.000000000000000
0.021118131620831 0.011609791104171 0.000000000000000
0.019496516185229 0.014165048156514 0.000000000000000
0.017567429042731 0.016496913937638 0.000000000000000
0.015361293049956 0.018568613531188 0.000000000000000
0.012912900289392 0.020347474996998 0.000000000000000
0.010260863377471 0.021805444627114 0.000000000000000
0.007447006520545 0.022919529369518 0.000000000000000
0.004515705922164 0.023672159442302 0.000000000000000
0.001513189943838 0.024051465419619 0.000000000000000
-0.001513189943838 0.024051465419619 0.000000000000000
-0.004515705922164 0.023672159442302 0.000000000000000
-0.007447006520545 0.022919529369518 0.000000000000000
-0.010260863377471 0.021805444627114 0.000000000000000
-0.012912900289392 0.020347474996998 0.000000000000000
-0.015361293049956 0.018568613531188 0.000000000000000
-0.017567429042731 0.016496913937638 0.000000000000000
-0.019496516185229 0.014165048156514 0.000000000000000
-0.021118131620831 0.011609791104171 0.000000000000000
-0.022406701505413 0.008871440710763 0.000000000000000
-0.023341904322139 0.005993182397804 0.000000000000000
-0.023908991363928 0.003020408018278 0.000000000000000
-0.024099019329368 0.000000000000000 0.000000000000000
-0.023908991363928 -0.003020408018278 0.000000000000000
-0.023341904322139 -0.005993182397804 0.000000000000000
-0.022406701505413 -0.008871440710763 0.000000000000000
-0.021118131620831 -0.011609791104171 0.000000000000000
[...]
POINT_DATA 1650

SCALARS beta float 1
LOOKUP_TABLE default
3.164765e-01
3.164805e-01
3.164850e-01
3.164900e-01
3.164953e-01
3.165009e-01
3.165068e-01
3.165127e-01
3.165187e-01
3.165247e-01
3.165305e-01
3.165361e-01
3.165414e-01
3.165464e-01
3.165509e-01
3.165548e-01
3.165582e-01
3.165610e-01
3.165630e-01
3.165643e-01
3.165648e-01
3.165645e-01
3.165635e-01
3.165616e-01
3.165590e-01
3.165556e-01
3.165516e-01
3.165470e-01
3.165418e-01
3.165362e-01
3.165302e-01
3.165240e-01
3.165176e-01
3.165112e-01
3.165049e-01
3.164987e-01
3.164929e-01
3.164874e-01
3.164824e-01
3.164780e-01
3.164742e-01
3.164711e-01
3.164687e-01
3.164670e-01
3.164661e-01
3.164660e-01
3.164667e-01
3.164681e-01
3.164703e-01
3.164731e-01
3.162204e-01
3.163625e-01
3.164487e-01
3.164818e-01
3.164689e-01
3.164206e-01
3.163506e-01
3.162741e-01
3.162070e-01
3.161649e-01
3.161616e-01
3.162082e-01
3.163120e-01
3.164765e-01
3.167003e-01
3.169773e-01
3.172973e-01
3.176458e-01
3.180058e-01
3.183578e-01
3.186818e-01
3.189579e-01
3.191681e-01
3.192969e-01
3.193327e-01
3.192684e-01
3.191019e-01
3.188363e-01
3.184801e-01
3.180464e-01
3.175525e-01
3.170189e-01
3.164680e-01
3.159235e-01
3.154082e-01
3.149434e-01
3.145476e-01
3.142353e-01
3.140164e-01
3.138956e-01
3.138724e-01
3.139412e-01
3.140918e-01
3.143100e-01
3.145786e-01
3.148789e-01
3.151913e-01
3.154971e-01
3.157793e-01
3.160239e-01
3.254262e-01
3.257994e-01
3.253719e-01
3.241960e-01
3.223724e-01
3.200445e-01
3.173899e-01
3.146101e-01
3.119173e-01
3.095209e-01
3.076133e-01
3.063558e-01
3.058671e-01
3.062136e-01
3.074045e-01
3.093903e-01
3.120661e-01
3.152787e-01
3.188374e-01
3.225268e-01
3.261214e-01
3.293993e-01
3.321565e-01
3.342180e-01
3.354484e-01
3.357586e-01
3.351108e-01
3.335210e-01
3.310580e-01
3.278406e-01
3.240317e-01
3.198300e-01
3.154594e-01
3.111562e-01
3.071550e-01
3.036739e-01
3.009007e-01
2.989798e-01
2.980028e-01
2.980021e-01
2.989491e-01
3.007567e-01
3.032862e-01
3.063572e-01
3.097609e-01
3.132741e-01
3.166742e-01
3.197524e-01
3.223266e-01
3.242515e-01
3.686770e-01
3.690898e-01
3.659873e-01
3.595729e-01
3.502324e-01
3.385281e-01
3.251854e-01
3.110675e-01
2.971336e-01
2.843810e-01
2.737715e-01
2.661498e-01
2.621634e-01
2.621955e-01
2.663225e-01
2.743045e-01
2.856087e-01
2.994640e-01
3.149361e-01
3.310104e-01
3.466733e-01
3.609801e-01
3.731060e-01
3.823796e-01
3.883008e-01
3.905484e-01
3.889822e-01
3.836430e-01
3.747532e-01
3.627164e-01
3.481147e-01
3.316974e-01
3.143580e-01
2.970943e-01
2.809512e-01
2.669469e-01
2.559899e-01
2.487975e-01
2.458250e-01
2.472204e-01
2.528093e-01
2.621149e-01
2.744080e-01
2.887792e-01
3.042221e-01
3.197144e-01
3.342899e-01
3.470933e-01
3.574186e-01
3.647308e-01
4.825659e-01
4.824790e-01
4.735779e-01
4.561448e-01
4.307607e-01
3.983978e-01
3.605224e-01
3.191706e-01
2.769523e-01
2.369424e-01
2.024383e-01
1.765962e-01
1.620019e-01
1.602675e-01
1.717545e-01
1.955007e-01
2.293756e-01
2.704201e-01
3.152843e-01
3.606544e-01
4.035857e-01
4.416962e-01
4.732219e-01
4.969661e-01
5.121907e-01
5.184961e-01
5.157265e-01
5.039250e-01
4.833465e-01
4.545252e-01
4.183818e-01
3.763387e-01
3.304064e-01
2.831941e-01
2.378049e-01
1.975976e-01
1.658276e-01
1.452225e-01
1.375803e-01
1.434846e-01
1.622117e-01
1.918539e-01
2.296248e-01
2.722684e-01
3.164743e-01
3.592180e-01
3.979778e-01
4.308217e-01
4.563879e-01
4.738009e-01
6.914325e-01
6.904427e-01
6.759745e-01
6.476880e-01
6.051423e-01
5.482073e-01
4.776349e-01
3.957014e-01
3.067525e-01
2.174117e-01
1.362014e-01
7.243856e-02
3.452398e-02
2.805501e-02
5.439577e-02
1.102635e-01
1.885185e-01
2.798602e-01
3.748015e-01
4.652853e-01
5.455703e-01
6.123532e-01
6.643405e-01
7.015608e-01
7.246625e-01
7.343479e-01
7.310059e-01
7.145584e-01
6.845153e-01
6.402303e-01
5.813476e-01
5.083983e-01
4.234523e-01
3.306570e-01
2.364303e-01
1.490823e-01
7.775946e-02
3.083976e-02
1.417470e-02
2.973435e-02
7.513838e-02
1.442488e-01
2.286002e-01
3.191591e-01
4.078624e-01
4.885733e-01
5.573655e-01
6.122714e-01
6.527311e-01
6.789657e-01
9.250993e-01
9.240264e-01
9.131356e-01
8.907014e-01
8.537351e-01
7.985956e-01
7.220537e-01
6.228575e-01
5.036247e-01
3.725180e-01
2.437708e-01
1.360701e-01
6.844319e-02
5.464210e-02
9.833454e-02
1.915540e-01
3.173486e-01
4.553014e-01
5.872356e-01
7.008388e-01
7.905010e-01
8.560591e-01
9.006577e-01
9.286933e-01
9.443064e-01
9.504765e-01
9.485849e-01
9.382872e-01
9.176105e-01
8.832846e-01
8.313986e-01
7.584886e-01
6.630802e-01
5.474741e-01
4.192245e-01
2.914771e-01
1.813983e-01
1.065404e-01
8.005836e-02
1.066168e-01
1.808642e-01
2.892287e-01
4.141605e-01
5.388848e-01
6.508536e-01
7.430730e-01
8.135682e-01
8.638210e-01
8.970083e-01
9.165455e-01
9.919227e-01
9.923738e-01
9.955332e-01
9.991904e-01
9.992418e-01
9.899357e-01
9.646039e-01
9.171897e-01
8.447020e-01
7.502095e-01
6.451294e-01
5.488425e-01
4.840885e-01
4.688454e-01
5.084204e-01
5.925631e-01
6.997579e-01
8.061160e-01
8.935973e-01
9.537911e-01
9.870659e-01
9.992634e-01
9.982175e-01
9.913069e-01
9.842114e-01
9.805131e-01
9.816983e-01
9.872488e-01
9.947077e-01
9.997678e-01
9.965686e-01
9.784779e-01
9.396251e-01
8.772066e-01
7.940374e-01
7.001712e-01
6.121433e-01
5.490395e-01
5.262369e-01
5.495035e-01
6.126248e-01
6.999715e-01
7.925389e-01
8.742295e-01
9.356428e-01
9.745566e-01
9.940585e-01
9.999083e-01
9.983007e-01
9.944530e-01
8.113242e-01
8.133473e-01
8.273796e-01
8.520657e-01
8.847620e-01
9.213930e-01
9.565471e-01
9.841060e-01
9.986133e-01
9.972871e-01
9.820146e-01
9.600082e-01
9.418073e-01
9.366683e-01
9.475674e-01
9.691378e-01
9.903031e-01
9.999556e-01
9.918884e-01
9.663619e-01
9.285317e-01
8.856350e-01
8.446171e-01
8.108707e-01
7.879512e-01
7.778073e-01
7.811016e-01
7.973872e-01
8.250885e-01
8.613582e-01
9.019686e-01
9.414733e-01
9.739132e-01
9.942042e-01
9.999291e-01
9.927433e-01
9.784239e-01
9.650328e-01
9.596339e-01
9.650467e-01
9.784528e-01
9.927553e-01
9.999231e-01
9.944370e-01
9.751265e-01
9.448868e-01
9.090153e-01
8.733442e-01
8.429391e-01
8.215098e-01
5.307540e-01
5.330682e-01
5.478573e-01
5.745506e-01
6.119718e-01
6.581237e-01
7.100389e-01
7.638687e-01
8.153077e-01
8.603146e-01
8.959176e-01
9.207115e-01
9.346854e-01
9.383579e-01
9.317256e-01
9.138505e-01
8.835570e-01
8.408193e-01
7.878013e-01
7.287915e-01
6.691543e-01
6.140303e-01
5.674338e-01
5.319740e-01
5.090556e-01
4.992555e-01
5.026414e-01
5.189161e-01
5.473553e-01
5.866002e-01
6.344135e-01
6.875507e-01
7.419408e-01
7.932588e-01
8.377421e-01
8.728986e-01
8.977241e-01
9.123309e-01
9.172209e-01
9.125976e-01
8.980999e-01
8.731452e-01
8.377330e-01
7.932445e-01
7.427054e-01
6.903163e-01
6.405529e-01
5.973291e-01
5.635419e-01
5.410273e-01
2.995901e-01
3.013803e-01
3.119745e-01
3.310932e-01
3.581311e-01
3.920261e-01
4.311002e-01
4.730687e-01
5.152084e-01
5.546075e-01
5.885027e-01
6.144944e-01
6.306370e-01
6.355330e-01
6.283919e-01
6.091741e-01
5.788276e-01
5.394207e-01
4.940897e-01
4.466531e-01
4.009263e-01
3.601312e-01
3.265498e-01
3.014911e-01
2.855438e-01
2.788497e-01
2.813264e-01
2.927937e-01
3.128963e-01
3.409255e-01
3.756127e-01
4.149622e-01
4.563357e-01
4.967894e-01
5.334988e-01
5.641755e-01
5.872277e-01
6.016465e-01
6.068385e-01
6.024515e-01
5.883984e-01
5.650999e-01
5.337197e-01
4.963316e-01
4.558112e-01
4.153997e-01
3.781884e-01
3.466668e-01
3.225086e-01
3.066706e-01
1.546156e-01
1.557682e-01
1.621047e-01
1.734405e-01
1.893600e-01
2.092036e-01
2.319029e-01
2.560780e-01
2.802104e-01
3.026977e-01
3.220936e-01
3.371303e-01
3.466700e-01
3.498520e-01
3.461140e-01
3.353142e-01
3.179813e-01
2.952865e-01
2.690116e-01
2.413954e-01
2.146536e-01
1.907183e-01
1.710045e-01
1.562914e-01
1.469506e-01
1.430682e-01
1.445776e-01
1.513913e-01
1.632903e-01
1.798088e-01
2.001400e-01
2.229941e-01
2.467107e-01
2.695620e-01
2.899670e-01
3.067923e-01
3.193831e-01
3.273105e-01
3.303375e-01
3.282263e-01
3.207592e-01
3.080275e-01
2.905008e-01
2.692444e-01
2.459116e-01
2.224074e-01
2.006250e-01
1.821281e-01
1.679480e-01
1.586866e-01
7.531614e-02
7.598291e-02
7.941939e-02
8.549916e-02
9.392058e-02
1.042672e-01
1.158682e-01
1.279398e-01
1.397240e-01
1.504705e-01
1.596134e-01
1.666758e-01
1.712032e-01
1.728334e-01
1.712832e-01
1.663989e-01
1.583250e-01
1.474929e-01
1.346260e-01
1.207947e-01
1.071136e-01
9.465098e-02
8.426666e-02
7.644657e-02
7.146717e-02
6.940722e-02
7.023699e-02
7.391481e-02
8.029279e-02
8.906492e-02
9.971172e-02
1.114408e-01
1.232855e-01
1.343532e-01
1.439196e-01
1.515780e-01
1.572288e-01
1.607917e-01
1.622591e-01
1.615140e-01
1.583403e-01
1.526677e-01
1.445332e-01
1.343163e-01
1.227635e-01
1.108266e-01
9.954854e-02
8.984558e-02
8.235058e-02
7.744389e-02
3.511687e-02
3.547949e-02
3.722536e-02
4.027324e-02
4.444156e-02
4.946215e-02
5.495794e-02
6.052835e-02
6.580815e-02
7.050987e-02
7.445224e-02
7.747000e-02
7.943245e-02
8.018251e-02
7.958848e-02
7.757819e-02
7.414285e-02
6.941860e-02
6.365677e-02
5.728015e-02
5.080997e-02
4.478579e-02
3.967515e-02
3.578558e-02
3.329464e-02
3.225930e-02
3.268633e-02
3.454302e-02
3.773657e-02
4.209122e-02
4.727853e-02
5.285859e-02
5.832726e-02
6.324783e-02
6.735516e-02
7.054557e-02
7.285948e-02
7.434002e-02
7.500545e-02
7.479505e-02
7.359239e-02
7.129536e-02
6.784530e-02
6.335102e-02
5.807879e-02
5.247241e-02
4.705376e-02
4.230248e-02
3.860033e-02
3.616623e-02
1.579387e-02
1.597714e-02
1.681796e-02
1.826437e-02
2.021991e-02
2.252646e-02
2.499324e-02
2.742616e-02
2.966636e-02
3.162076e-02
3.323540e-02
3.446977e-02
3.527968e-02
3.560330e-02
3.538292e-02
3.458328e-02
3.319023e-02
3.123120e-02
2.878929e-02
2.601060e-02
2.311705e-02
2.036284e-02
1.798043e-02
1.614798e-02
1.496408e-02
1.447064e-02
1.467643e-02
1.556168e-02
1.707685e-02
1.911887e-02
2.151110e-02
2.402117e-02
2.640825e-02
2.848112e-02
3.015159e-02
3.141931e-02
3.232674e-02
3.292322e-02
3.321576e-02
3.317475e-02
3.274682e-02
3.186102e-02
3.047491e-02
2.859891e-02
2.632304e-02
2.383217e-02
2.136579e-02
1.916552e-02
1.742973e-02
1.628516e-02
6.916920e-03
7.003415e-03
7.388372e-03
8.043732e-03
8.916677e-03
9.929412e-03
1.098839e-02
1.200504e-02
1.292041e-02
1.370364e-02
1.434466e-02
1.483792e-02
1.516281e-02
1.529629e-02
1.521485e-02
1.490026e-02
1.434977e-02
1.356582e-02
1.256908e-02
1.141088e-02
1.017467e-02
8.971689e-03
7.914206e-03
7.089966e-03
6.553195e-03
6.329519e-03
6.422585e-03
6.824501e-03
7.509149e-03
8.420385e-03
9.472350e-03
1.055113e-02
1.154708e-02
1.238673e-02
1.304259e-02
1.353042e-02
1.388135e-02
1.411689e-02
1.424240e-02
1.424431e-02
1.409450e-02
1.376327e-02
1.322461e-02
1.246966e-02
1.152860e-02
1.047004e-02
9.397414e-03
8.426038e-03
7.649835e-03
7.135487e-03
3.003533e-03
3.043026e-03
3.211903e-03
3.496800e-03
3.872077e-03
4.300303e-03
4.738872e-03
5.151330e-03
5.514265e-03
5.820622e-03
6.071229e-03
6.263671e-03
6.392695e-03
6.446288e-03
6.414417e-03
6.292785e-03
6.077840e-03
5.770866e-03
5.376023e-03
4.907738e-03
4.397869e-03
3.891918e-03
3.439644e-03
3.083099e-03
2.849464e-03
2.751194e-03
2.792111e-03
2.967610e-03
3.264199e-03
3.656246e-03
4.100990e-03
4.548244e-03
4.951422e-03
5.281183e-03
5.533325e-03
5.718450e-03
5.852191e-03
5.945122e-03
5.998025e-03
6.004080e-03
5.952729e-03
5.830370e-03
5.624389e-03
5.329552e-03
4.951413e-03
4.516503e-03
4.067621e-03
3.653612e-03
3.320231e-03
3.097877e-03
1.332034e-03
1.349212e-03
1.421657e-03
1.542683e-03
1.700306e-03
1.877698e-03
2.056342e-03
2.220815e-03
2.363253e-03
2.482163e-03
2.578837e-03
2.654163e-03
2.704525e-03
2.725666e-03
2.713651e-03
2.666033e-03
2.583067e-03
2.463942e-03
2.309168e-03
2.122976e-03
1.916292e-03
1.707534e-03
1.518257e-03
1.367343e-03
1.267559e-03
1.225654e-03
1.243086e-03
1.318033e-03
1.444228e-03
1.608842e-03
1.793500e-03
1.975707e-03
2.136151e-03
2.264730e-03
2.360660e-03
2.430578e-03
2.481684e-03
2.518043e-03
2.539797e-03
2.544096e-03
2.526178e-03
2.480865e-03
2.402986e-03
2.288361e-03
2.138865e-03
1.963240e-03
1.778515e-03
1.606283e-03
1.465774e-03
1.371707e-03
6.257149e-04
6.332902e-04
6.643491e-04
7.158778e-04
7.823597e-04
8.562127e-04
9.294110e-04
9.958025e-04
1.052273e-03
1.098861e-03
1.136832e-03
1.166232e-03
1.186257e-03
1.194697e-03
1.189896e-03
1.171457e-03
1.138936e-03
1.092284e-03
1.031082e-03
9.562342e-04
8.718272e-04
7.852140e-04
7.055403e-04
6.413344e-04
5.986418e-04
5.805550e-04
5.881566e-04
6.204209e-04
6.742219e-04
7.439754e-04
8.209965e-04
8.958403e-04
9.605879e-04
1.011158e-03
1.048324e-03
1.075068e-03
1.094701e-03
1.109037e-03
1.117982e-03
1.120198e-03
1.113926e-03
1.096944e-03
1.066831e-03
1.021973e-03
9.620367e-04
8.904790e-04
8.141746e-04
7.419055e-04
6.826046e-04
6.426124e-04
3.218427e-04
3.252012e-04
3.389506e-04
3.615798e-04
3.905084e-04
4.223350e-04
4.535097e-04
4.813068e-04
5.046320e-04
5.236245e-04
5.388791e-04
5.508235e-04
5.588747e-04
5.623406e-04
5.605701e-04
5.531547e-04
5.401674e-04
5.212487e-04
4.960750e-04
4.648554e-04
4.290515e-04
3.917786e-04
3.571109e-04
3.288937e-04
3.099678e-04
3.019907e-04
3.053837e-04
3.197365e-04
3.435737e-04
3.740588e-04
4.074466e-04
4.394119e-04
4.665383e-04
4.873950e-04
5.022881e-04
5.128500e-04
5.206086e-04
5.263393e-04
5.300478e-04
5.312019e-04
5.289421e-04
5.223478e-04
5.103804e-04
4.919613e-04
4.670390e-04
4.367572e-04
4.039867e-04
3.727392e-04
3.467862e-04
3.292280e-04
1.843585e-04
1.859545e-04
1.923522e-04
2.028367e-04
2.161708e-04
2.307141e-04
2.448144e-04
2.572598e-04
2.675098e-04
2.757031e-04
2.822297e-04
2.872347e-04
2.906740e-04
2.921882e-04
2.914880e-04
2.884819e-04
2.830041e-04
2.749062e-04
2.639206e-04
2.500224e-04
2.338645e-04
2.168490e-04
2.008482e-04
1.877299e-04
1.789023e-04
1.751553e-04
1.767909e-04
1.835552e-04
1.946788e-04
2.088585e-04
2.241930e-04
2.387249e-04
2.509083e-04
2.600346e-04
2.664185e-04
2.708035e-04
2.739626e-04
2.763359e-04
2.779376e-04
2.785154e-04
2.777147e-04
2.750466e-04
2.699444e-04
2.619543e-04
2.508519e-04
2.371993e-04
2.222973e-04
2.079172e-04
1.959487e-04
1.878029e-04
1.174302e-04
1.182189e-04
1.213924e-04
1.265798e-04
1.331462e-04
1.402849e-04
1.471632e-04
1.531663e-04
1.580377e-04
1.618437e-04
1.647942e-04
1.670407e-04
1.685711e-04
1.692752e-04
1.690278e-04
1.677355e-04
1.653111e-04
1.615992e-04
1.564248e-04
1.497562e-04
1.418965e-04
1.335394e-04
1.256374e-04
1.191234e-04
1.147252e-04
1.128719e-04
1.137023e-04
1.170986e-04
1.226617e-04
1.296993e-04
1.372780e-04
1.444028e-04
1.502960e-04
1.546413e-04
1.575731e-04
1.595065e-04
1.608595e-04
1.618742e-04
1.625957e-04
1.629157e-04
1.626336e-04
1.614920e-04
1.591808e-04
1.554116e-04
1.500884e-04
1.434517e-04
1.361478e-04
1.290792e-04
1.231641e-04
1.191306e-04
8.189176e-05
8.230302e-05
8.397723e-05
8.670592e-05
9.016320e-05
9.391749e-05
9.753131e-05
1.006515e-04
1.031488e-04
1.050511e-04
1.064672e-04
1.075350e-04
1.082485e-04
1.085978e-04
1.085289e-04
1.079518e-04
1.068218e-04
1.049992e-04
1.023736e-04
9.892704e-05
9.480919e-05
9.040691e-05
8.623265e-05
8.278971e-05
8.045818e-05
7.948724e-05
7.993399e-05
8.174350e-05
8.471149e-05
8.843693e-05
9.245445e-05
9.620880e-05
9.928437e-05
1.015203e-04
1.029658e-04
1.038697e-04
1.044714e-04
1.049209e-04
1.052611e-04
1.054485e-04
1.053618e-04
1.048491e-04
1.037322e-04
1.018120e-04
9.905894e-05
9.558851e-05
9.174215e-05
8.803081e-05
8.490655e-05
8.278386e-05
6.121366e-05
6.145220e-05
6.237519e-05
6.389349e-05
6.582206e-05
6.791734e-05
6.992267e-05
7.166239e-05
7.301934e-05
7.402028e-05
7.476251e-05
7.527120e-05
7.563847e-05
7.582533e-05
7.579883e-05
7.555831e-05
7.498881e-05
7.404495e-05
7.263699e-05
7.073207e-05
6.844574e-05
6.599041e-05
6.365351e-05
6.172617e-05
6.043665e-05
5.988573e-05
6.014865e-05
6.117036e-05
6.281775e-05
6.492732e-05
6.716612e-05
6.926563e-05
7.098682e-05
7.219197e-05
7.296316e-05
7.340646e-05
7.367513e-05
7.388002e-05
7.405097e-05
7.415642e-05
7.414691e-05
7.391302e-05
7.331931e-05
7.230204e-05
7.077276e-05
6.884035e-05
6.671241e-05
6.462305e-05
6.289989e-05
6.171784e-05
4.799600e-05
4.812166e-05
4.865982e-05
4.953721e-05
5.065094e-05
5.186639e-05
5.303767e-05
5.403083e-05
5.480693e-05
5.536651e-05
5.574112e-05
5.602209e-05
5.619638e-05
5.629677e-05
5.631365e-05
5.618675e-05
5.591228e-05
5.539964e-05
5.460304e-05
5.351863e-05
5.219249e-05
5.076228e-05
4.940782e-05
4.829215e-05
4.753530e-05
4.723231e-05
4.737947e-05
4.796970e-05
4.894531e-05
5.015358e-05
5.147127e-05
5.269433e-05
5.367683e-05
5.437986e-05
5.479187e-05
5.501752e-05
5.514466e-05
5.523420e-05
5.531797e-05
5.539143e-05
5.539977e-05
5.528469e-05
5.498183e-05
5.438986e-05
5.352467e-05
5.240854e-05
5.115848e-05
4.996863e-05
4.895800e-05
4.827797e-05
3.844891e-05
3.852672e-05
3.883851e-05
3.935085e-05
4.000666e-05
4.072220e-05
4.140975e-05
4.199381e-05
4.243939e-05
4.274871e-05
4.295480e-05
4.308959e-05
4.318153e-05
4.323804e-05
4.325263e-05
4.320610e-05
4.306250e-05
4.278428e-05
4.233254e-05
4.170045e-05
4.092161e-05
4.008033e-05
3.928054e-05
3.862409e-05
3.818391e-05
3.800116e-05
3.809092e-05
3.844057e-05
3.901090e-05
3.973171e-05
4.050583e-05
4.122632e-05
4.180846e-05
4.220698e-05
4.243880e-05
4.255100e-05
4.260552e-05
4.264527e-05
4.268924e-05
4.273244e-05
4.274966e-05
4.270051e-05
4.253148e-05
4.220208e-05
4.169335e-05
4.103856e-05
4.030901e-05
3.960284e-05
3.901437e-05
3.861628e-05
3.033096e-05
3.038284e-05
3.055914e-05
3.085657e-05
3.123714e-05
3.165187e-05
3.204138e-05
3.238207e-05
3.262781e-05
3.279278e-05
3.291057e-05
3.296628e-05
3.302096e-05
3.305373e-05
3.305702e-05
3.305155e-05
3.297462e-05
3.282829e-05
3.258421e-05
3.222103e-05
3.177794e-05
3.129386e-05
3.082895e-05
3.044546e-05
3.019665e-05
3.008263e-05
3.014038e-05
3.034708e-05
3.066709e-05
3.109868e-05
3.153813e-05
3.195372e-05
3.229240e-05
3.250654e-05
3.263577e-05
3.268977e-05
3.270650e-05
3.272277e-05
3.274623e-05
3.276759e-05
3.278656e-05
3.276811e-05
3.267034e-05
3.249839e-05
3.220363e-05
3.182572e-05
3.141590e-05
3.099449e-05
3.066473e-05
3.043310e-05
2.226633e-05
2.228095e-05
2.238520e-05
2.254729e-05
2.275080e-05
2.297154e-05
2.318885e-05
2.335577e-05
2.348905e-05
2.357834e-05
2.361488e-05
2.366379e-05
2.367579e-05
2.369032e-05
2.371153e-05
2.369098e-05
2.367236e-05
2.360010e-05
2.346850e-05
2.328836e-05
2.304983e-05
2.278761e-05
2.253913e-05
2.233359e-05
2.218465e-05
2.213917e-05
2.216227e-05
2.226924e-05
2.246371e-05
2.267328e-05
2.292643e-05
2.314887e-05
2.331315e-05
2.344062e-05
2.349306e-05
2.351639e-05
2.352504e-05
2.352550e-05
2.353232e-05
2.355342e-05
2.356088e-05
2.354962e-05
2.351918e-05
2.341080e-05
2.326981e-05
2.307250e-05
2.283337e-05
2.263104e-05
2.243527e-05
2.231235e-05
1.389803e-05
1.391192e-05
1.395563e-05
1.402947e-05
1.412431e-05
1.422797e-05
1.432377e-05
1.440435e-05
1.446062e-05
1.449371e-05
1.451654e-05
1.452143e-05
1.453014e-05
1.453741e-05
1.454150e-05
1.454803e-05
1.453559e-05
1.450801e-05
1.445355e-05
1.436913e-05
1.426059e-05
1.414006e-05
1.402377e-05
1.392708e-05
1.386451e-05
1.383426e-05
1.384842e-05
1.390178e-05
1.398343e-05
1.409359e-05
1.420341e-05
1.430548e-05
1.438802e-05
1.443516e-05
1.446142e-05
1.446662e-05
1.446586e-05
1.446620e-05
1.447075e-05
1.447693e-05
1.448447e-05
1.448716e-05
1.446829e-05
1.443219e-05
1.436197e-05
1.427084e-05
1.417038e-05
1.406472e-05
1.398176e-05
1.392325e-05
6.387466e-06
6.401395e-06
6.412234e-06
6.438653e-06
6.475114e-06
6.512587e-06
6.539516e-06
6.576668e-06
6.589640e-06
6.596692e-06
6.615291e-06
6.601632e-06
6.613254e-06
6.617361e-06
6.608445e-06
6.625466e-06
6.613860e-06
6.606109e-06
6.595431e-06
6.559339e-06
6.524827e-06
6.484686e-06
6.440268e-06
6.403631e-06
6.388869e-06
6.367265e-06
6.378843e-06
6.401629e-06
6.418159e-06
6.473561e-06
6.502005e-06
6.538078e-06
6.574712e-06
6.579250e-06
6.593047e-06
6.594464e-06
6.587664e-06
6.589788e-06
6.593146e-06
6.589336e-06
6.597673e-06
6.601217e-06
6.585851e-06
6.587154e-06
6.555214e-06
6.520789e-06
6.498050e-06
6.444289e-06
6.425910e-06
6.403355e-06
1.659701e-06
1.645219e-06
1.659008e-06
1.667405e-06
1.672097e-06
1.678030e-06
1.695255e-06
1.685649e-06
1.697642e-06
1.706773e-06
1.687495e-06
1.715832e-06
1.702625e-06
1.700941e-06
1.719020e-06
1.693901e-06
1.709573e-06
1.707245e-06
1.694663e-06
1.701277e-06
1.690268e-06
1.678416e-06
1.673169e-06
1.667078e-06
1.646486e-06
1.663105e-06
1.654752e-06
1.653125e-06
1.681921e-06
1.662924e-06
1.689558e-06
1.696577e-06
1.685642e-06