# vtk DataFile Version 3.0
Tensor
ASCII
DATASET UNSTRUCTURED_GRID
POINTS 1650 float
0.000087556026434 0.000000000000000 0.000000000000000
0.000086865621014 0.000010973679911 0.000000000000000
0.000084805292859 0.000021774298334 0.000000000000000
0.000081407534576 0.000032231523066 0.000000000000000
0.000076725930842 0.000042180437424 0.000000000000000
0.000070834313345 0.000051464141087 0.000000000000000
0.000063825596412 0.000059936224502 0.000000000000000
0.000055810311696 0.000067463077852 0.000000000000000
0.000046914865025 0.000073925998164 0.000000000000000
0.000037279542907 0.000079223061324 0.000000000000000
0.000027056300128 0.000083270729481 0.000000000000000
0.000016406363333 0.000086005168491 0.000000000000000
0.000005497688388 0.000087383254616 0.000000000000000
-0.000005497688388 0.000087383254616 0.000000000000000
-0.000016406363333 0.000086005168491 0.000000000000000
-0.000027056300128 0.000083270729481 0.000000000000000
-0.000037279542907 0.000079223061324 0.000000000000000
-0.000046914865025 0.000073925998164 0.000000000000000
-0.000055810311696 0.000067463077852 0.000000000000000
-0.000063825596412 0.000059936224502 0.000000000000000
-0.000070834313345 0.000051464141087 0.000000000000000
-0.000076725930842 0.000042180437424 0.000000000000000
-0.000081407534576 0.000032231523066 0.000000000000000
-0.000084805292859 0.000021774298334 0.000000000000000
-0.000086865621014 0.000010973679911 0.000000000000000
-0.000087556026434 0.000000000000000 0.000000000000000
-0.000086865621014 -0.000010973679911 0.000000000000000
-0.000084805292859 -0.000021774298334 0.000000000000000
-0.000081407534576 -0.000032231523066 0.000000000000000
-0.000076725930842 -0.000042180437424 0.000000000000000
-0.000070834313345 -0.000051464141087 0.000000000000000
-0.000063825596412 -0.000059936224502 0.000000000000000
-0.000055810311696 -0.000067463077852 0.000000000000000
-0.000046914865025 -0.000073925998164 0.000000000000000
-0.000037279542907 -0.000079223061324 0.000000000000000
-0.000027056300128 -0.000083270729481 0.000000000000000
-0.000016406363333 -0.000086005168491 0.000000000000000
-0.000005497688388 -0.000087383254616 0.000000000000000
0.000005497688388 -0.000087383254616 0.000000000000000
0.000016406363333 -0.000086005168491 0.000000000000000
0.000027056300128 -0.000083270729481 0.000000000000000
0.000037279542907 -0.000079223061324 0.000000000000000
0.000046914865025 -0.000073925998164 0.000000000000000
0.000055810311696 -0.000067463077852 0.000000000000000
0.000063825596412 -0.000059936224502 0.000000000000000
0.000070834313345 -0.000051464141087 0.000000000000000
0.000076725930842 -0.000042180437424 0.000000000000000
0.000081407534576 -0.000032231523066 0.000000000000000
0.000084805292859 -0.000021774298334 0.000000000000000
0.000086865621014 -0.000010973679911 0.000000000000000
0.003371443549894 0.000000000000000 0.000000000000000
0.003344858710501 0.000422553921888 0.000000000000000
0.003265523451123 0.000838443916006 0.000000000000000
0.003134688936191 0.001241111148706 0.000000000000000
0.002954418504162 0.001624205317188 0.000000000000000
0.002727555127440 0.001981684797564 0.000000000000000
0.002457676576995 0.002307911924882 0.000000000000000
0.002149038998786 0.002597741902464 0.000000000000000
0.001806509791792 0.002846603938429 0.000000000000000
0.001435490846225 0.003050573329806 0.000000000000000
0.001041833352493 0.003206433357448 0.000000000000000
0.000631745524431 0.003311726015612 0.000000000000000
0.000211694692062 0.003364790776181 0.000000000000000
-0.000211694692062 0.003364790776181 0.000000000000000
-0.000631745524431 0.003311726015612 0.000000000000000
-0.001041833352493 0.003206433357448 0.000000000000000
-0.001435490846225 0.003050573329806 0.000000000000000
-0.001806509791792 0.002846603938429 0.000000000000000
-0.002149038998786 0.002597741902464 0.000000000000000
-0.002457676576995 0.002307911924882 0.000000000000000
-0.002727555127440 0.001981684797564 0.000000000000000
-0.002954418504162 0.001624205317188 0.000000000000000
-0.003134688936191 0.001241111148706 0.000000000000000
-0.003265523451123 0.000838443916006 0.000000000000000
-0.003344858710501 0.000422553921888 0.000000000000000
-0.003371443549894 0.000000000000000 0.000000000000000
-0.003344858710501 -0.000422553921888 0.000000000000000
-0.003265523451123 -0.000838443916006 0.000000000000000
-0.003134688936191 -0.001241111148706 0.000000000000000
-0.002954418504162 -0.001624205317188 0.000000000000000
-0.002727555127440 -0.001981684797564 0.000000000000000
-0.002457676576995 -0.002307911924882 0.000000000000000
-0.002149038998786 -0.002597741902464 0.000000000000000
-0.001806509791792 -0.002846603938429 0.000000000000000
-0.001435490846225 -0.003050573329806 0.000000000000000
-0.001041833352493 -0.003206433357448 0.000000000000000
-0.000631745524431 -0.003311726015612 0.000000000000000
-0.000211694692062 -0.003364790776181 0.000000000000000
0.000211694692062 -0.003364790776181 0.000000000000000
0.000631745524431 -0.003311726015612 0.000000000000000
0.001041833352493 -0.003206433357448 0.000000000000000
0.001435490846225 -0.003050573329806 0.000000000000000
0.001806509791792 -0.002846603938429 0.000000000000000
0.002149038998786 -0.002597741902464 0.000000000000000
0.002457676576995 -0.002307911924882 0.000000000000000
0.002727555127440 -0.001981684797564 0.000000000000000
0.002954418504162 -0.001624205317188 0.000000000000000
0.003134688936191 -0.001241111148706 0.000000000000000
0.003265523451123 -0.000838443916006 0.000000000000000
0.003344858710501 -0.000422553921888 0.000000000000000
0.011400754268046 0.000000000000000 0.000000000000000
0.011310855915403 0.001428893397486 0.000000000000000
0.011042578608195 0.002835252292515 0.000000000000000
0.010600153239820 0.004196897565192 0.000000000000000
0.009990557122628 0.005492355256162 0.000000000000000
0.009223403951542 0.006701195223768 0.000000000000000
0.008310792190347 0.007804353339595 0.000000000000000
0.007267114271682 0.008784432141162 0.000000000000000
0.006108829619790 0.009625975200298 0.000000000000000
0.004854205075556 0.010315710880246 0.000000000000000
0.003523026817519 0.010842761637305 0.000000000000000
0.002136288322015 0.011198815566193 0.000000000000000
0.000715859283517 0.011378257483753 0.000000000000000
-0.000715859283517 0.011378257483753 0.000000000000000
-0.002136288322015 0.011198815566193 0.000000000000000
-0.003523026817519 0.010842761637305 0.000000000000000
-0.004854205075556 0.010315710880246 0.000000000000000
-0.006108829619790 0.009625975200298 0.000000000000000
-0.007267114271682 0.008784432141162 0.000000000000000
-0.008310792190347 0.007804353339595 0.000000000000000
-0.009223403951542 0.006701195223768 0.000000000000000
-0.009990557122628 0.005492355256162 0.000000000000000
-0.010600153239820 0.004196897565192 0.000000000000000
-0.011042578608195 0.002835252292515 0.000000000000000
-0.011310855915403 0.001428893397486 0.000000000000000
-0.011400754268046 0.000000000000000 0.000000000000000
-0.011310855915403 -0.001428893397486 0.000000000000000
-0.011042578608195 -0.002835252292515 0.000000000000000
-0.010600153239820 -0.004196897565192 0.000000000000000
-0.009990557122628 -0.005492355256162 0.000000000000000
-0.009223403951542 -0.006701195223768 0.000000000000000
-0.008310792190347 -0.007804353339595 0.000000000000000
-0.007267114271682 -0.008784432141162 0.000000000000000
-0.006108829619790 -0.009625975200298 0.000000000000000
-0.004854205075556 -0.010315710880246 0.000000000000000
-0.003523026817519 -0.010842761637305 0.000000000000000
-0.002136288322015 -0.011198815566193 0.000000000000000
-0.000715859283517 -0.011378257483753 0.000000000000000
0.000715859283517 -0.011378257483753 0.000000000000000
0.002136288322015 -0.011198815566193 0.000000000000000
0.003523026817519 -0.010842761637305 0.000000000000000
0.004854205075556 -0.010315710880246 0.000000000000000
0.006108829619790 -0.009625975200298 0.000000000000000
0.007267114271682 -0.008784432141162 0.000000000000000
0.008310792190347 -0.007804353339595 0.000000000000000
0.009223403951542 -0.006701195223768 0.000000000000000
0.009990557122628 -0.005492355256162 0.000000000000000
0.010600153239820 -0.004196897565192 0.000000000000000
0.011042578608195 -0.002835252292515 0.000000000000000
0.011310855915403 -0.001428893397486 0.000000000000000
0.024099019329368 0.000000000000000 0.000000000000000
0.023908991363928 0.003020408018278 0.000000000000000
0.023341904322139 0.005993182397804 0.000000000000000
0.022406701505413 0.008871440710763 0.000000000000000
0.021118131620831 0.011609791104171 0.000000000000000
0.019496516185229 0.014165048156514 0.000000000000000
0.017567429042731 0.016496913937638 0.000000000000000
0.015361293049956 0.018568613531188 0.000000000000000
0.012912900289392 0.020347474996998 0.000000000000000
0.010260863377471 0.021805444627114 0.000000000000000
0.007447006520545 0.022919529369518 0.000000000000000
0.004515705922164 0.023672159442302 0.000000000000000
0.001513189943838 0.024051465419619 0.000000000000000
-0.001513189943838 0.024051465419619 0.000000000000000
-0.004515705922164 0.023672159442302 0.000000000000000
-0.007447006520545 0.022919529369518 0.000000000000000
-0.010260863377471 0.021805444627114 0.000000000000000
-0.012912900289392 0.020347474996998 0.000000000000000
-0.015361293049956 0.018568613531188 0.000000000000000
-0.017567429042731 0.016496913937638 0.000000000000000
-0.019496516185229 0.014165048156514 0.000000000000000
-0.021118131620831 0.011609791104171 0.000000000000000
-0.022406701505413 0.008871440710763 0.000000000000000
-0.023341904322139 0.005993182397804 0.000000000000000
-0.023908991363928 0.003020408018278 0.000000000000000
-0.024099019329368 0.000000000000000 0.000000000000000
-0.023908991363928 -0.003020408018278 0.000000000000000
-0.023341904322139 -0.005993182397804 0.000000000000000
-0.022406701505413 -0.008871440710763 0.000000000000000
-0.021118131620831 -0.011609791104171 0.000000000000000
[...]
POINT_DATA 1650

SCALARS beta float 1
LOOKUP_TABLE default
6.572706e-09
6.572815e-09
6.572920e-09
6.573031e-09
6.573140e-09
6.573241e-09
6.573342e-09
6.573436e-09
6.573519e-09
6.573595e-09
6.573663e-09
6.573711e-09
6.573754e-09
6.573782e-09
6.573796e-09
6.573799e-09
6.573789e-09
6.573755e-09
6.573717e-09
6.573668e-09
6.573601e-09
6.573520e-09
6.573437e-09
6.573344e-09
6.573250e-09
6.573145e-09
6.573041e-09
6.572931e-09
6.572821e-09
6.572716e-09
6.572614e-09
6.572515e-09
6.572423e-09
6.572339e-09
6.572265e-09
6.572201e-09
6.572149e-09
6.572105e-09
6.572077e-09
6.572066e-09
6.572066e-09
6.572080e-09
6.572102e-09
6.572144e-09
6.572194e-09
6.572258e-09
6.572331e-09
6.572414e-09
6.572503e-09
6.572605e-09
6.616025e-09
6.620203e-09
6.624697e-09
6.629411e-09
6.634252e-09
6.639119e-09
6.643879e-09
6.648420e-09
6.652619e-09
6.656370e-09
6.659565e-09
6.662130e-09
6.663989e-09
6.665110e-09
6.665465e-09
6.665056e-09
6.663912e-09
6.662084e-09
6.659633e-09
6.656648e-09
6.653216e-09
6.649445e-09
6.645432e-09
6.641285e-09
6.637081e-09
6.632923e-09
6.628883e-09
6.625015e-09
6.621367e-09
6.617972e-09
6.614854e-09
6.612011e-09
6.609455e-09
6.607173e-09
6.605151e-09
6.603391e-09
6.601880e-09
6.600621e-09
6.599617e-09
6.598882e-09
6.598439e-09
6.598313e-09
6.598532e-09
6.599136e-09
6.600154e-09
6.601619e-09
6.603556e-09
6.605972e-09
6.608869e-09
6.612231e-09
7.146644e-09
7.160946e-09
7.178405e-09
7.198584e-09
7.220876e-09
7.244521e-09
7.268666e-09
7.292373e-09
7.314715e-09
7.334774e-09
7.351739e-09
7.364925e-09
7.373813e-09
7.378083e-09
7.377637e-09
7.372587e-09
7.363260e-09
7.350165e-09
7.333989e-09
7.315499e-09
7.295570e-09
7.275057e-09
7.254807e-09
7.235586e-09
7.218036e-09
7.202662e-09
7.189802e-09
7.179616e-09
7.172090e-09
7.167047e-09
7.164165e-09
7.163017e-09
7.163071e-09
7.163790e-09
7.164609e-09
7.165045e-09
7.164670e-09
7.163193e-09
7.160467e-09
7.156491e-09
7.151434e-09
7.145610e-09
7.139460e-09
7.133537e-09
7.128440e-09
7.124798e-09
7.123223e-09
7.124259e-09
7.128337e-09
7.135760e-09
9.409224e-09
9.436926e-09
9.480646e-09
9.538933e-09
9.609404e-09
9.688873e-09
9.773536e-09
9.859197e-09
9.941516e-09
1.001625e-08
1.007954e-08
1.012807e-08
1.015933e-08
1.017174e-08
1.016478e-08
1.013904e-08
1.009619e-08
1.003885e-08
9.970485e-09
9.895062e-09
9.816841e-09
9.740030e-09
9.668570e-09
9.605857e-09
9.554613e-09
9.516756e-09
9.493357e-09
9.484619e-09
9.489881e-09
9.507686e-09
9.535836e-09
9.571504e-09
9.611424e-09
9.652042e-09
9.689791e-09
9.721352e-09
9.743897e-09
9.755329e-09
9.754442e-09
9.741005e-09
9.715774e-09
9.680393e-09
9.637313e-09
9.589556e-09
9.540550e-09
9.493919e-09
9.453244e-09
9.421871e-09
9.402704e-09
9.397996e-09
1.649033e-08
1.651095e-08
1.659792e-08
1.674719e-08
1.695051e-08
1.719613e-08
1.746967e-08
1.775521e-08
1.803624e-08
1.829662e-08
1.852127e-08
1.869690e-08
1.881266e-08
1.886086e-08
1.883775e-08
1.874413e-08
1.858572e-08
1.837293e-08
1.812014e-08
1.784439e-08
1.756375e-08
1.729576e-08
1.705603e-08
1.685736e-08
1.670926e-08
1.661796e-08
1.658664e-08
1.661556e-08
1.670229e-08
1.684158e-08
1.702527e-08
1.724228e-08
1.747870e-08
1.771847e-08
1.794451e-08
1.814006e-08
1.829043e-08
1.838440e-08
1.841531e-08
1.838148e-08
1.828605e-08
1.813628e-08
1.794268e-08
1.771803e-08
1.747662e-08
1.723348e-08
1.700381e-08
1.680233e-08
1.664252e-08
1.653572e-08
3.645040e-08
3.633894e-08
3.648680e-08
3.688293e-08
3.749911e-08
3.829316e-08
3.921322e-08
4.020231e-08
4.120214e-08
4.215554e-08
4.300765e-08
4.370676e-08
4.420596e-08
4.446620e-08
4.446109e-08
4.418222e-08
4.364330e-08
4.288136e-08
4.195393e-08
4.093227e-08
3.989252e-08
3.890668e-08
3.803587e-08
3.732671e-08
3.681107e-08
3.650810e-08
3.642730e-08
3.657104e-08
3.693536e-08
3.750892e-08
3.827025e-08
3.918477e-08
4.020295e-08
4.126101e-08
4.228506e-08
4.319842e-08
4.393086e-08
4.442742e-08
4.465482e-08
4.460366e-08
4.428663e-08
4.373379e-08
4.298707e-08
4.209555e-08
4.111251e-08
4.009397e-08
3.909783e-08
3.818255e-08
3.740447e-08
3.681387e-08
8.869877e-08
8.801938e-08
8.827099e-08
8.942809e-08
9.141022e-08
9.409016e-08
9.730554e-08
1.008714e-07
1.045899e-07
1.082551e-07
1.116545e-07
1.145726e-07
1.167998e-07
1.181508e-07
1.184880e-07
1.177473e-07
1.159592e-07
1.132559e-07
1.098591e-07
1.060495e-07
1.021267e-07
9.837047e-08
9.501404e-08
9.223142e-08
9.013859e-08
8.880399e-08
8.826326e-08
8.853164e-08
8.960907e-08
9.147546e-08
9.407831e-08
9.731773e-08
1.010350e-07
1.050098e-07
1.089704e-07
1.126181e-07
1.156633e-07
1.178653e-07
1.190632e-07
1.191910e-07
1.182736e-07
1.164111e-07
1.137571e-07
1.104995e-07
1.068455e-07
1.030129e-07
9.922489e-08
9.570325e-08
9.265860e-08
9.027575e-08
2.141514e-07
2.114192e-07
2.116461e-07
2.147995e-07
2.207434e-07
2.292270e-07
2.398771e-07
2.522005e-07
2.655845e-07
2.792878e-07
2.924426e-07
3.040991e-07
3.133217e-07
3.193060e-07
3.214831e-07
3.195994e-07
3.137703e-07
3.044905e-07
2.925749e-07
2.790343e-07
2.649277e-07
2.512408e-07
2.388091e-07
2.282817e-07
2.201126e-07
2.145796e-07
2.118247e-07
2.119011e-07
2.148019e-07
2.204541e-07
2.286872e-07
2.391974e-07
2.515229e-07
2.650288e-07
2.789031e-07
2.921841e-07
3.038433e-07
3.129147e-07
3.186282e-07
3.205036e-07
3.183971e-07
3.125100e-07
3.033627e-07
2.917248e-07
2.785116e-07
2.646778e-07
2.511362e-07
2.387058e-07
2.280742e-07
2.197701e-07
4.869810e-07
4.768080e-07
4.753416e-07
4.825262e-07
4.982696e-07
5.223062e-07
5.540553e-07
5.925413e-07
6.362931e-07
6.831540e-07
7.301335e-07
7.735428e-07
8.094796e-07
8.344456e-07
8.458577e-07
8.424088e-07
8.243278e-07
7.934469e-07
7.529111e-07
7.065695e-07
6.583204e-07
6.116496e-07
5.693969e-07
5.336717e-07
5.058530e-07
4.866712e-07
4.763802e-07
4.749786e-07
4.823688e-07
4.983677e-07
5.226006e-07
5.543974e-07
5.927391e-07
6.361736e-07
6.826320e-07
7.292612e-07
7.725081e-07
8.085403e-07
8.338224e-07
8.456357e-07
8.425024e-07
8.245275e-07
7.935147e-07
7.526786e-07
7.060019e-07
6.575236e-07
6.108203e-07
5.687442e-07
5.333422e-07
5.058833e-07
1.018433e-06
9.857574e-07
9.773601e-07
9.926558e-07
1.031577e-06
1.094252e-06
1.180536e-06
1.289662e-06
1.419714e-06
1.566530e-06
1.722430e-06
1.875752e-06
2.011809e-06
2.115043e-06
2.171831e-06
2.173494e-06
2.118810e-06
2.014837e-06
1.875191e-06
1.716463e-06
1.554608e-06
1.402552e-06
1.269194e-06
1.159585e-06
1.075822e-06
1.018093e-06
9.856031e-07
9.773841e-07
9.928648e-07
1.031977e-06
1.094832e-06
1.181300e-06
1.290635e-06
1.420906e-06
1.567935e-06
1.724050e-06
1.877586e-06
2.013838e-06
2.117241e-06
2.174142e-06
2.175823e-06
2.121073e-06
2.016978e-06
1.877142e-06
1.718172e-06
1.556064e-06
1.403755e-06
1.270147e-06
1.160314e-06
1.076354e-06
1.951851e-06
1.863846e-06
1.836311e-06
1.866183e-06
1.953404e-06
2.100702e-06
2.312649e-06
2.594464e-06
2.949990e-06
3.377733e-06
3.865164e-06
4.382902e-06
4.881399e-06
5.294148e-06
5.550993e-06
5.599692e-06
5.426294e-06
5.062121e-06
4.571926e-06
4.030747e-06
3.503162e-06
3.032750e-06
2.641257e-06
2.333925e-06
2.106867e-06
1.952886e-06
1.864712e-06
1.836739e-06
1.866036e-06
1.952658e-06
2.099356e-06
2.310844e-06
2.592475e-06
2.948000e-06
3.375800e-06
3.863284e-06
4.380841e-06
4.878714e-06
5.290578e-06
5.546569e-06
5.594629e-06
5.421134e-06
5.057556e-06
4.568305e-06
4.028100e-06
3.501407e-06
3.031582e-06
2.640269e-06
2.332928e-06
2.105840e-06
3.437847e-06
3.232550e-06
3.160398e-06
3.211131e-06
3.385326e-06
3.694341e-06
4.160160e-06
4.814775e-06
5.697354e-06
6.845687e-06
8.277669e-06
9.958394e-06
1.175579e-05
1.340975e-05
1.456424e-05
1.489626e-05
1.428795e-05
1.290461e-05
1.110017e-05
9.237022e-06
7.562283e-06
6.187129e-06
5.125995e-06
4.344998e-06
3.796419e-06
3.436365e-06
3.231327e-06
3.159668e-06
3.211225e-06
3.386449e-06
3.696323e-06
4.162726e-06
4.817662e-06
5.700135e-06
6.848053e-06
8.279858e-06
9.960940e-06
1.175927e-05
1.341494e-05
1.457154e-05
1.490485e-05
1.429655e-05
1.291216e-05
1.110578e-05
9.240447e-06
7.564225e-06
6.188312e-06
5.126872e-06
4.346043e-06
3.797826e-06
5.576016e-06
5.159242e-06
5.005124e-06
5.085555e-06
5.402629e-06
5.988227e-06
6.908970e-06
8.275683e-06
1.025550e-05
1.307860e-05
1.701771e-05
2.228949e-05
2.880285e-05
3.574428e-05
4.131414e-05
4.332646e-05
4.077280e-05
3.476129e-05
2.754906e-05
2.094866e-05
1.573338e-05
1.193604e-05
9.292694e-06
7.502367e-06
6.321426e-06
5.577898e-06
5.160872e-06
5.006116e-06
5.085535e-06
5.401393e-06
5.985889e-06
6.905854e-06
8.272211e-06
1.025220e-05
1.307579e-05
1.701520e-05
2.228653e-05
2.879823e-05
3.573657e-05
4.130261e-05
4.331232e-05
4.075859e-05
3.474940e-05
2.754082e-05
2.094394e-05
1.573100e-05
1.193478e-05
9.291698e-06
7.501079e-06
6.319699e-06
8.381219e-06
7.632908e-06
7.348404e-06
7.463565e-06
7.981963e-06
8.975764e-06
1.060434e-05
1.315984e-05
1.715189e-05
2.345040e-05
3.348237e-05
4.934093e-05
7.319392e-05
1.045453e-04
1.350206e-04
1.481859e-04
1.343720e-04
1.031558e-04
7.123842e-05
4.719072e-05
3.144274e-05
2.167713e-05
1.569330e-05
1.201143e-05
9.743800e-06
8.379050e-06
7.631035e-06
7.347342e-06
7.463710e-06
7.983495e-06
8.978636e-06
1.060828e-05
1.316423e-05
1.715624e-05
2.345442e-05
3.348624e-05
4.934584e-05
7.320221e-05
1.045602e-04
1.350438e-04
1.482152e-04
1.344009e-04
1.031780e-04
7.125245e-05
4.719821e-05
3.144625e-05
2.167877e-05
1.569459e-05
1.201304e-05
9.745763e-06
1.172498e-05
1.052690e-05
1.006549e-05
1.022014e-05
1.099545e-05
1.252501e-05
1.511752e-05
1.939350e-05
2.657328e-05
3.914209e-05
6.231439e-05
1.070431e-04
1.940273e-04
3.476209e-04
5.450691e-04
6.493946e-04
5.488207e-04
3.497496e-04
1.931190e-04
1.046240e-04
5.964278e-05
3.674736e-05
2.459972e-05
1.784476e-05
1.396273e-05
1.172740e-05
1.052921e-05
1.006668e-05
1.022001e-05
1.099390e-05
1.252169e-05
1.511322e-05
1.938827e-05
2.656815e-05
3.913694e-05
6.230883e-05
1.070361e-04
1.940125e-04
3.475934e-04
5.450197e-04
6.493308e-04
5.487609e-04
3.497076e-04
1.930967e-04
1.046122e-04
5.963794e-05
3.674494e-05
2.459778e-05
1.784276e-05
1.396019e-05
1.537381e-05
1.364096e-05
1.296878e-05
1.315918e-05
1.421822e-05
1.635601e-05
2.008178e-05
2.649161e-05
3.795190e-05
6.004404e-05
1.071801e-04
2.203012e-04
5.199429e-04
1.302785e-03
2.806034e-03
3.852547e-03
2.869757e-03
1.342972e-03
5.312149e-04
2.206309e-04
1.047675e-04
5.735449e-05
3.560785e-05
2.461246e-05
1.866797e-05
1.537074e-05
1.363924e-05
1.296753e-05
1.315940e-05
1.422037e-05
1.635893e-05
2.008725e-05
2.649667e-05
3.795849e-05
6.005076e-05
1.071872e-04
2.203159e-04
5.199657e-04
1.302859e-03
2.806172e-03
3.852769e-03
2.869955e-03
1.343070e-03
5.312645e-04
2.206474e-04
1.047763e-04
5.735773e-05
3.561010e-05
2.461541e-05
1.866987e-05
1.901010e-05
1.672267e-05
1.583174e-05
1.605150e-05
1.739597e-05
2.014331e-05
2.502488e-05
3.367693e-05
4.989234e-05
8.366942e-05
1.654579e-04
4.066936e-04
1.292108e-03
4.994282e-03
1.738340e-02
3.044994e-02
1.817918e-02
5.301294e-03
1.357476e-03
4.174724e-04
1.652090e-04
8.135917e-05
4.747484e-05
3.161049e-05
2.342609e-05
1.901151e-05
1.672472e-05
1.583236e-05
1.605116e-05
1.739500e-05
2.014025e-05
2.502187e-05
3.367181e-05
4.988773e-05
8.366325e-05
1.654483e-04
4.066813e-04
1.292061e-03
4.994176e-03
1.738310e-02
3.044965e-02
1.817902e-02
5.301186e-03
1.357442e-03
4.174519e-04
1.652030e-04
8.135531e-05
4.747200e-05
3.160874e-05
2.342338e-05
2.234156e-05
1.955036e-05
1.845480e-05
1.869415e-05
2.028084e-05
2.355733e-05
2.944233e-05
4.004233e-05
6.047958e-05
1.052031e-04
2.233405e-04
6.304409e-04
2.599497e-03
1.576179e-02
1.050670e-01
2.832541e-01
1.137179e-01
1.727973e-02
2.801756e-03
6.612796e-04
2.273369e-04
1.040411e-04
5.836181e-05
3.799185e-05
2.776878e-05
2.234189e-05
1.954989e-05
1.845519e-05
1.869445e-05
2.028087e-05
2.355858e-05
2.944228e-05
4.004411e-05
6.048109e-05
1.052057e-04
2.233456e-04
6.304460e-04
2.599522e-03
1.576175e-02
1.050671e-01
2.832567e-01
1.137198e-01
1.728008e-02
2.801798e-03
6.612986e-04
2.273412e-04
1.040441e-04
5.836383e-05
3.799229e-05
2.776994e-05
2.514643e-05
2.195946e-05
2.069390e-05
2.094031e-05
2.269780e-05
2.637935e-05
3.299673e-05
4.492048e-05
6.812732e-05
1.197706e-04
2.610057e-04
7.837362e-04
3.707374e-03
3.005396e-02
3.564905e-01
8.593615e-01
4.001623e-01
3.378675e-02
4.065117e-03
8.345444e-04
2.697234e-04
1.201988e-04
6.659343e-05
4.305548e-05
3.133528e-05
2.514399e-05
2.195782e-05
2.069263e-05
2.094015e-05
2.269939e-05
2.638194e-05
3.300072e-05
4.492437e-05
6.813193e-05
1.197740e-04
2.610074e-04
7.837411e-04
3.707370e-03
3.005385e-02
3.564883e-01
8.593557e-01
4.001700e-01
3.378758e-02
4.065234e-03
8.345637e-04
2.697289e-04
1.201996e-04
6.659388e-05
4.305692e-05
3.133686e-05
2.729768e-05
2.386179e-05
2.247117e-05
2.269912e-05
2.456843e-05
2.849409e-05
3.550992e-05
4.803411e-05
7.212693e-05
1.250487e-04
2.672182e-04
7.807577e-04
3.570031e-03
2.793584e-02
3.194466e-01
9.867801e-01
3.592561e-01
3.148478e-02
3.930056e-03
8.368838e-04
2.787952e-04
1.269445e-04
7.129450e-05
4.644370e-05
3.394056e-05
2.730185e-05
2.386523e-05
2.247318e-05
2.269913e-05
2.456576e-05
2.848884e-05
3.550285e-05
4.802573e-05
7.211753e-05
1.250392e-04
2.672064e-04
7.807300e-04
3.569921e-03
2.793505e-02
3.194393e-01
9.867826e-01
3.592562e-01
3.148443e-02
3.929951e-03
8.368525e-04
2.787848e-04
1.269408e-04
7.129179e-05
4.644042e-05
3.393669e-05
2.878503e-05
2.521650e-05
2.376298e-05
2.399136e-05
2.590336e-05
2.988864e-05
3.695773e-05
4.941913e-05
7.279529e-05
1.221579e-04
2.467134e-04
6.522418e-04
2.494895e-03
1.420406e-02
9.197609e-02
2.480964e-01
1.002156e-01
1.570961e-02
2.723439e-03
6.983222e-04
2.583800e-04
1.248225e-04
7.252419e-05
4.818261e-05
3.559494e-05
2.878169e-05
2.521362e-05
2.376154e-05
2.399164e-05
2.590570e-05
2.989327e-05
3.696386e-05
4.942657e-05
7.280345e-05
1.221664e-04
2.467236e-04
6.522590e-04
2.494934e-03
1.420413e-02
9.197597e-02
2.480970e-01
1.002175e-01
1.571013e-02
2.723557e-03
6.983575e-04
2.583921e-04
1.248275e-04
7.252767e-05
4.818590e-05
3.559840e-05
2.964917e-05
2.604519e-05
2.459260e-05
2.484832e-05
2.674395e-05
3.064320e-05
3.750279e-05
4.939527e-05
7.100241e-05
1.140219e-04
2.128820e-04
4.890003e-04
1.455264e-03
5.430756e-03
1.923212e-02
3.467664e-02
2.031544e-02
5.850424e-03
1.563736e-03
5.199313e-04
2.226790e-04
1.166986e-04
7.103802e-05
4.852455e-05
3.641035e-05
2.964879e-05
2.604488e-05
2.459222e-05
2.484815e-05
2.674417e-05
3.064358e-05
3.750325e-05
4.939562e-05
7.100225e-05
1.140210e-04
2.128794e-04
4.889935e-04
1.455246e-03
5.430692e-03
1.923190e-02
3.467644e-02
2.031547e-02
5.850452e-03
1.563744e-03
5.199313e-04
2.226778e-04
1.166977e-04
7.103712e-05
4.852412e-05
3.641058e-05
2.998457e-05
2.650798e-05
2.504903e-05
2.523405e-05
2.706667e-05
3.085671e-05
3.740136e-05
4.840977e-05
6.753861e-05
1.033056e-04
1.772948e-04
3.504668e-04
8.054885e-04
2.017447e-03
4.456597e-03
6.248774e-03
4.606599e-03
2.120189e-03
8.491087e-04
3.681478e-04
1.844908e-04
1.058391e-04
6.784378e-05
4.770215e-05
3.641312e-05
2.998918e-05
2.651217e-05
2.505143e-05
2.523397e-05
2.706364e-05
3.085048e-05
3.739338e-05
4.840007e-05
6.752912e-05
1.032963e-04
1.772845e-04
3.504518e-04
8.054491e-04
2.017346e-03
4.456360e-03
6.248440e-03
4.606340e-03
2.120055e-03
8.490537e-04
3.681243e-04
1.844823e-04
1.058352e-04
6.784099e-05
4.769892e-05
3.640833e-05
2.982767e-05
2.649669e-05
2.509493e-05
2.527988e-05
2.700737e-05
3.056630e-05
3.664061e-05
4.661034e-05
6.325969e-05
9.222628e-05
1.456543e-04
2.500823e-04
4.575511e-04
8.287447e-04
1.298622e-03
1.543548e-03
1.320485e-03
8.523469e-04
4.737101e-04
2.594426e-04
1.504315e-04
9.413998e-05
6.354469e-05
4.611067e-05
3.585725e-05
2.982338e-05
2.649220e-05
2.509285e-05
2.528029e-05
2.701035e-05
3.057312e-05
3.664849e-05
4.662075e-05
6.326938e-05
9.223599e-05
1.456651e-04
2.500946e-04
4.575792e-04
8.287925e-04
1.298719e-03
1.543675e-03
1.320605e-03
8.524340e-04
4.737537e-04
2.594674e-04
1.504413e-04
9.414552e-05
6.354882e-05
4.611435e-05
3.586261e-05
2.912180e-05
2.601419e-05
2.468638e-05
2.484276e-05
2.645704e-05
2.974295e-05
3.527698e-05
4.416205e-05
5.834929e-05
8.137354e-05
1.193262e-04
1.813782e-04
2.755163e-04
3.905624e-04
4.815510e-04
5.128773e-04
4.837005e-04
3.948564e-04
2.806823e-04
1.858152e-04
1.221774e-04
8.267824e-05
5.856156e-05
4.375487e-05
3.464031e-05
2.911955e-05
2.601392e-05
2.468525e-05
2.484244e-05
2.645843e-05
2.974348e-05
3.527998e-05
4.416298e-05
5.835153e-05
8.137454e-05
1.193251e-04
1.813798e-04
2.755133e-04
3.905702e-04
4.815550e-04
5.128894e-04
4.837156e-04
3.948625e-04
2.806917e-04
1.858150e-04
1.221794e-04
8.267782e-05
5.856095e-05
4.375602e-05
3.464032e-05
2.759581e-05
2.480030e-05
2.357547e-05
2.369064e-05
2.513573e-05
2.811207e-05
3.304784e-05
4.073538e-05
5.253478e-05
7.048782e-05
9.706933e-05
1.335652e-04
1.754860e-04
2.080333e-04
2.178348e-04
2.160018e-04
2.169988e-04
2.076402e-04
1.763704e-04
1.352072e-04
9.854781e-05
7.130369e-05
5.265000e-05
4.037731e-05
3.249438e-05
2.760477e-05
2.480576e-05
2.357973e-05
2.369067e-05
2.512979e-05
2.810356e-05
3.303351e-05
4.072215e-05
5.251955e-05
7.047470e-05
9.705839e-05
1.335479e-04
1.754659e-04
2.079916e-04
2.177848e-04
2.159383e-04
2.169315e-04
2.075873e-04
1.763276e-04
1.351869e-04
9.853432e-05
7.129816e-05
5.264602e-05
4.037062e-05
3.248846e-05
2.473347e-05
2.231322e-05
2.125817e-05
2.137479e-05
2.261457e-05
2.512282e-05
2.926112e-05
3.563004e-05
4.509008e-05
5.859088e-05
7.660982e-05
9.743339e-05
1.147950e-04
1.198243e-04
1.123839e-04
1.063000e-04
1.111524e-04
1.183929e-04
1.142782e-04
9.780563e-05
7.719876e-05
5.890775e-05
4.505671e-05
3.536414e-05
2.887927e-05
2.472760e-05
2.231001e-05
2.125567e-05
2.137487e-05
2.261854e-05
2.512809e-05
2.927033e-05
3.563814e-05
4.510032e-05
5.859941e-05
7.661685e-05
9.744526e-05
1.148061e-04
1.198462e-04
1.124075e-04
1.063285e-04
1.111836e-04
1.184189e-04
1.143019e-04
9.781792e-05
7.720858e-05
5.891186e-05
4.505993e-05
3.536922e-05
2.888274e-05
1.993499e-05
1.808507e-05
1.724841e-05
1.729228e-05
1.825099e-05
2.021396e-05
2.340201e-05
2.819204e-05
3.504321e-05
4.440949e-05
5.589731e-05
6.704713e-05
7.293381e-05
6.954731e-05
6.054817e-05
5.558965e-05
5.972910e-05
6.835074e-05
7.199332e-05
6.674332e-05
5.599264e-05
4.453947e-05
3.500009e-05
2.793334e-05
2.307099e-05
1.992820e-05
1.807915e-05
1.724476e-05
1.729258e-05
1.825549e-05
2.022243e-05
2.341371e-05
2.820494e-05
3.505442e-05
4.441987e-05
5.590654e-05
6.705581e-05
7.294810e-05
6.956758e-05
6.057380e-05
5.561966e-05
5.976085e-05
6.838133e-05
7.201839e-05
6.675930e-05
5.600050e-05
4.454448e-05
3.500363e-05
2.793752e-05
2.307768e-05
1.327953e-05
1.206778e-05
1.152969e-05
1.159956e-05
1.221027e-05
1.345882e-05
1.548864e-05
1.849865e-05
2.278342e-05
2.832957e-05
3.458903e-05
3.979174e-05
4.095754e-05
3.678692e-05
3.049803e-05
2.744895e-05
2.995906e-05
3.594112e-05
4.030695e-05
3.946871e-05
3.448926e-05
2.826655e-05
2.266004e-05
1.837156e-05
1.532166e-05
1.329240e-05
1.207661e-05
1.153599e-05
1.159901e-05
1.220167e-05
1.344581e-05
1.546730e-05
1.847824e-05
2.276261e-05
2.831099e-05
3.457334e-05
3.977261e-05
4.093614e-05
3.675288e-05
3.046102e-05
2.740535e-05
2.991180e-05
3.589669e-05
4.026441e-05
3.944406e-05
3.447288e-05
2.825755e-05
2.265336e-05
1.836223e-05
1.531198e-05
6.389158e-06
5.831588e-06
5.578818e-06
5.573446e-06
5.873813e-06
6.466054e-06
7.413330e-06
8.824518e-06
1.071627e-05
1.316303e-05
1.581427e-05
1.767376e-05
1.753747e-05
1.510313e-05
1.213227e-05
1.078296e-05
1.192985e-05
1.476787e-05
1.714266e-05
1.743878e-05
1.572596e-05
1.313129e-05
1.069411e-05
8.723918e-06
7.320293e-06
6.387743e-06
5.834050e-06
5.578618e-06
5.573564e-06
5.874501e-06
6.462208e-06
7.414912e-06
8.820807e-06
1.071588e-05
1.316238e-05
1.581234e-05
1.767702e-05
1.753249e-05
1.510487e-05
1.212842e-05
1.078107e-05
1.192775e-05
1.476178e-05
1.714533e-05
1.743344e-05
1.572756e-05
1.313099e-05
1.069350e-05
8.725448e-06
7.316928e-06
1.707959e-06
1.543172e-06
1.477201e-06
1.515980e-06
1.580822e-06
1.714398e-06
1.946994e-06
2.299616e-06
2.848213e-06
3.467116e-06
4.051181e-06
4.440618e-06
4.308467e-06
3.661147e-06
2.881530e-06
2.524048e-06
2.772575e-06
3.509382e-06
4.274079e-06
4.438766e-06
4.021513e-06
3.409188e-06
2.788048e-06
2.325198e-06
1.960101e-06
1.695678e-06
1.529103e-06
1.470585e-06
1.516459e-06
1.589542e-06
1.735800e-06
1.968365e-06
2.328774e-06