# vtk DataFile Version 3.0
Tensor
ASCII
DATASET UNSTRUCTURED_GRID
POINTS 1650 float
0.000087556026434 0.000000000000000 0.000000000000000
0.000086865621014 0.000010973679911 0.000000000000000
0.000084805292859 0.000021774298334 0.000000000000000
0.000081407534576 0.000032231523066 0.000000000000000
0.000076725930842 0.000042180437424 0.000000000000000
0.000070834313345 0.000051464141087 0.000000000000000
0.000063825596412 0.000059936224502 0.000000000000000
0.000055810311696 0.000067463077852 0.000000000000000
0.000046914865025 0.000073925998164 0.000000000000000
0.000037279542907 0.000079223061324 0.000000000000000
0.000027056300128 0.000083270729481 0.000000000000000
0.000016406363333 0.000086005168491 0.000000000000000
0.000005497688388 0.000087383254616 0.000000000000000
-0.000005497688388 0.000087383254616 0.000000000000000
-0.000016406363333 0.000086005168491 0.000000000000000
-0.000027056300128 0.000083270729481 0.000000000000000
-0.000037279542907 0.000079223061324 0.000000000000000
-0.000046914865025 0.000073925998164 0.000000000000000
-0.000055810311696 0.000067463077852 0.000000000000000
-0.000063825596412 0.000059936224502 0.000000000000000
-0.000070834313345 0.000051464141087 0.000000000000000
-0.000076725930842 0.000042180437424 0.000000000000000
-0.000081407534576 0.000032231523066 0.000000000000000
-0.000084805292859 0.000021774298334 0.000000000000000
-0.000086865621014 0.000010973679911 0.000000000000000
-0.000087556026434 0.000000000000000 0.000000000000000
-0.000086865621014 -0.000010973679911 0.000000000000000
-0.000084805292859 -0.000021774298334 0.000000000000000
-0.000081407534576 -0.000032231523066 0.000000000000000
-0.000076725930842 -0.000042180437424 0.000000000000000
-0.000070834313345 -0.000051464141087 0.000000000000000
-0.000063825596412 -0.000059936224502 0.000000000000000
-0.000055810311696 -0.000067463077852 0.000000000000000
-0.000046914865025 -0.000073925998164 0.000000000000000
-0.000037279542907 -0.000079223061324 0.000000000000000
-0.000027056300128 -0.000083270729481 0.000000000000000
-0.000016406363333 -0.000086005168491 0.000000000000000
-0.000005497688388 -0.000087383254616 0.000000000000000
0.000005497688388 -0.000087383254616 0.000000000000000
0.000016406363333 -0.000086005168491 0.000000000000000
0.000027056300128 -0.000083270729481 0.000000000000000
0.000037279542907 -0.000079223061324 0.000000000000000
0.000046914865025 -0.000073925998164 0.000000000000000
0.000055810311696 -0.000067463077852 0.000000000000000
0.000063825596412 -0.000059936224502 0.000000000000000
0.000070834313345 -0.000051464141087 0.000000000000000
0.000076725930842 -0.000042180437424 0.000000000000000
0.000081407534576 -0.000032231523066 0.000000000000000
0.000084805292859 -0.000021774298334 0.000000000000000
0.000086865621014 -0.000010973679911 0.000000000000000
0.003371443549894 0.000000000000000 0.000000000000000
0.003344858710501 0.000422553921888 0.000000000000000
0.003265523451123 0.000838443916006 0.000000000000000
0.003134688936191 0.001241111148706 0.000000000000000
0.002954418504162 0.001624205317188 0.000000000000000
0.002727555127440 0.001981684797564 0.000000000000000
0.002457676576995 0.002307911924882 0.000000000000000
0.002149038998786 0.002597741902464 0.000000000000000
0.001806509791792 0.002846603938429 0.000000000000000
0.001435490846225 0.003050573329806 0.000000000000000
0.001041833352493 0.003206433357448 0.000000000000000
0.000631745524431 0.003311726015612 0.000000000000000
0.000211694692062 0.003364790776181 0.000000000000000
-0.000211694692062 0.003364790776181 0.000000000000000
-0.000631745524431 0.003311726015612 0.000000000000000
-0.001041833352493 0.003206433357448 0.000000000000000
-0.001435490846225 0.003050573329806 0.000000000000000
-0.001806509791792 0.002846603938429 0.000000000000000
-0.002149038998786 0.002597741902464 0.000000000000000
-0.002457676576995 0.002307911924882 0.000000000000000
-0.002727555127440 0.001981684797564 0.000000000000000
-0.002954418504162 0.001624205317188 0.000000000000000
-0.003134688936191 0.001241111148706 0.000000000000000
-0.003265523451123 0.000838443916006 0.000000000000000
-0.003344858710501 0.000422553921888 0.000000000000000
-0.003371443549894 0.000000000000000 0.000000000000000
-0.003344858710501 -0.000422553921888 0.000000000000000
-0.003265523451123 -0.000838443916006 0.000000000000000
-0.003134688936191 -0.001241111148706 0.000000000000000
-0.002954418504162 -0.001624205317188 0.000000000000000
-0.002727555127440 -0.001981684797564 0.000000000000000
-0.002457676576995 -0.002307911924882 0.000000000000000
-0.002149038998786 -0.002597741902464 0.000000000000000
-0.001806509791792 -0.002846603938429 0.000000000000000
-0.001435490846225 -0.003050573329806 0.000000000000000
-0.001041833352493 -0.003206433357448 0.000000000000000
-0.000631745524431 -0.003311726015612 0.000000000000000
-0.000211694692062 -0.003364790776181 0.000000000000000
0.000211694692062 -0.003364790776181 0.000000000000000
0.000631745524431 -0.003311726015612 0.000000000000000
0.001041833352493 -0.003206433357448 0.000000000000000
0.001435490846225 -0.003050573329806 0.000000000000000
0.001806509791792 -0.002846603938429 0.000000000000000
0.002149038998786 -0.002597741902464 0.000000000000000
0.002457676576995 -0.002307911924882 0.000000000000000
0.002727555127440 -0.001981684797564 0.000000000000000
0.002954418504162 -0.001624205317188 0.000000000000000
0.003134688936191 -0.001241111148706 0.000000000000000
0.003265523451123 -0.000838443916006 0.000000000000000
0.003344858710501 -0.000422553921888 0.000000000000000
0.011400754268046 0.000000000000000 0.000000000000000
0.011310855915403 0.001428893397486 0.000000000000000
0.011042578608195 0.002835252292515 0.000000000000000
0.010600153239820 0.004196897565192 0.000000000000000
0.009990557122628 0.005492355256162 0.000000000000000
0.009223403951542 0.006701195223768 0.000000000000000
0.008310792190347 0.007804353339595 0.000000000000000
0.007267114271682 0.008784432141162 0.000000000000000
0.006108829619790 0.009625975200298 0.000000000000000
0.004854205075556 0.010315710880246 0.000000000000000
0.003523026817519 0.010842761637305 0.000000000000000
0.002136288322015 0.011198815566193 0.000000000000000
0.000715859283517 0.011378257483753 0.000000000000000
-0.000715859283517 0.011378257483753 0.000000000000000
-0.002136288322015 0.011198815566193 0.000000000000000
-0.003523026817519 0.010842761637305 0.000000000000000
-0.004854205075556 0.010315710880246 0.000000000000000
-0.006108829619790 0.009625975200298 0.000000000000000
-0.007267114271682 0.008784432141162 0.000000000000000
-0.008310792190347 0.007804353339595 0.000000000000000
-0.009223403951542 0.006701195223768 0.000000000000000
-0.009990557122628 0.005492355256162 0.000000000000000
-0.010600153239820 0.004196897565192 0.000000000000000
-0.011042578608195 0.002835252292515 0.000000000000000
-0.011310855915403 0.001428893397486 0.000000000000000
-0.011400754268046 0.000000000000000 0.000000000000000
-0.011310855915403 -0.001428893397486 0.000000000000000
-0.011042578608195 -0.002835252292515 0.000000000000000
-0.010600153239820 -0.004196897565192 0.000000000000000
-0.009990557122628 -0.005492355256162 0.000000000000000
-0.009223403951542 -0.006701195223768 0.000000000000000
-0.008310792190347 -0.007804353339595 0.000000000000000
-0.007267114271682 -0.008784432141162 0.000000000000000
-0.006108829619790 -0.009625975200298 0.000000000000000
-0.004854205075556 -0.010315710880246 0.000000000000000
-0.003523026817519 -0.010842761637305 0.000000000000000
-0.002136288322015 -0.011198815566193 0.000000000000000
-0.000715859283517 -0.011378257483753 0.000000000000000
0.000715859283517 -0.011378257483753 0.000000000000000
0.002136288322015 -0.011198815566193 0.000000000000000
0.003523026817519 -0.010842761637305 0.000000000000000
0.004854205075556 -0.010315710880246 0.000000000000000
0.006108829619790 -0.009625975200298 0.000000000000000
0.007267114271682 -0.008784432141162 0.000000000000000
0.008310792190347 -0.007804353339595 0.000000000000000
0.009223403951542 -0.006701195223768 0.000000000000000
0.009990557122628 -0.005492355256162 0.000000000000000
0.010600153239820 -0.004196897565192 0.000000000000000
0.011042578608195 -0.002835252292515 0.000000000000000
0.011310855915403 -0.001428893397486 0.000000000000000
0.024099019329368 0.000000000000000 0.000000000000000
0.023908991363928 0.003020408018278 0.000000000000000
0.023341904322139 0.005993182397804 0.000000000000000
0.022406701505413 0.008871440710763 0.000000000000000
0.021118131620831 0.011609791104171 0.000000000000000
0.019496516185229 0.014165048156514 0.000000000000000
0.017567429042731 0.016496913937638 0.000000000000000
0.015361293049956 0.018568613531188 0.000000000000000
0.012912900289392 0.020347474996998 0.000000000000000
0.010260863377471 0.021805444627114 0.000000000000000
0.007447006520545 0.022919529369518 0.000000000000000
0.004515705922164 0.023672159442302 0.000000000000000
0.001513189943838 0.024051465419619 0.000000000000000
-0.001513189943838 0.024051465419619 0.000000000000000
-0.004515705922164 0.023672159442302 0.000000000000000
-0.007447006520545 0.022919529369518 0.000000000000000
-0.010260863377471 0.021805444627114 0.000000000000000
-0.012912900289392 0.020347474996998 0.000000000000000
-0.015361293049956 0.018568613531188 0.000000000000000
-0.017567429042731 0.016496913937638 0.000000000000000
-0.019496516185229 0.014165048156514 0.000000000000000
-0.021118131620831 0.011609791104171 0.000000000000000
-0.022406701505413 0.008871440710763 0.000000000000000
-0.023341904322139 0.005993182397804 0.000000000000000
-0.023908991363928 0.003020408018278 0.000000000000000
-0.024099019329368 0.000000000000000 0.000000000000000
-0.023908991363928 -0.003020408018278 0.000000000000000
-0.023341904322139 -0.005993182397804 0.000000000000000
-0.022406701505413 -0.008871440710763 0.000000000000000
-0.021118131620831 -0.011609791104171 0.000000000000000
[...]
POINT_DATA 1650

SCALARS beta float 1
LOOKUP_TABLE default
4.058121e-01
4.058120e-01
4.058119e-01
4.058118e-01
4.058116e-01
4.058114e-01
4.058112e-01
4.058109e-01
4.058107e-01
4.058105e-01
4.058104e-01
4.058103e-01
4.058103e-01
4.058103e-01
4.058104e-01
4.058105e-01
4.058107e-01
4.058110e-01
4.058112e-01
4.058115e-01
4.058118e-01
4.058121e-01
4.058123e-01
4.058125e-01
4.058126e-01
4.058127e-01
4.058128e-01
4.058127e-01
4.058127e-01
4.058125e-01
4.058124e-01
4.058122e-01
4.058119e-01
4.058117e-01
4.058115e-01
4.058113e-01
4.058112e-01
4.058111e-01
4.058110e-01
4.058110e-01
4.058111e-01
4.058112e-01
4.058113e-01
4.058114e-01
4.058116e-01
4.058117e-01
4.058119e-01
4.058120e-01
4.058121e-01
4.058121e-01
4.070713e-01
4.070513e-01
4.069518e-01
4.067790e-01
4.065435e-01
4.062602e-01
4.059466e-01
4.056226e-01
4.053083e-01
4.050237e-01
4.047866e-01
4.046120e-01
4.045111e-01
4.044901e-01
4.045506e-01
4.046888e-01
4.048960e-01
4.051594e-01
4.054623e-01
4.057859e-01
4.061099e-01
4.064141e-01
4.066795e-01
4.068895e-01
4.070313e-01
4.070959e-01
4.070795e-01
4.069831e-01
4.068128e-01
4.065794e-01
4.062976e-01
4.059849e-01
4.056612e-01
4.053466e-01
4.050611e-01
4.048225e-01
4.046459e-01
4.045423e-01
4.045183e-01
4.045753e-01
4.047096e-01
4.049126e-01
4.051714e-01
4.054697e-01
4.057885e-01
4.061076e-01
4.064070e-01
4.066676e-01
4.068732e-01
4.070107e-01
4.202976e-01
4.200875e-01
4.189838e-01
4.170521e-01
4.144077e-01
4.112102e-01
4.076547e-01
4.039612e-01
4.003615e-01
3.970849e-01
3.943427e-01
3.923138e-01
3.911321e-01
3.908758e-01
3.915624e-01
3.931467e-01
3.955244e-01
3.985401e-01
4.019981e-01
4.056772e-01
4.093447e-01
4.127723e-01
4.157491e-01
4.180948e-01
4.196687e-01
4.203772e-01
4.201785e-01
4.190847e-01
4.171611e-01
4.145229e-01
4.113296e-01
4.077762e-01
4.040829e-01
4.004816e-01
3.972014e-01
3.944540e-01
3.924184e-01
3.912284e-01
3.909626e-01
3.916384e-01
3.932108e-01
3.955756e-01
3.985775e-01
4.020210e-01
4.056851e-01
4.093372e-01
4.127493e-01
4.157110e-01
4.180420e-01
4.196019e-01
4.701518e-01
4.692949e-01
4.647363e-01
4.566937e-01
4.455637e-01
4.319217e-01
4.165155e-01
4.002450e-01
3.841238e-01
3.692192e-01
3.565735e-01
3.471123e-01
3.415530e-01
3.403276e-01
3.435339e-01
3.509232e-01
3.619292e-01
3.757307e-01
3.913367e-01
4.076803e-01
4.237064e-01
4.384435e-01
4.510542e-01
4.608657e-01
4.673827e-01
4.702907e-01
4.694533e-01
4.649110e-01
4.568809e-01
4.457592e-01
4.321213e-01
4.167150e-01
4.004405e-01
3.843119e-01
3.693974e-01
3.567398e-01
3.472654e-01
3.416922e-01
3.404525e-01
3.436436e-01
3.510167e-01
3.620051e-01
3.757870e-01
3.913714e-01
4.076914e-01
4.236924e-01
4.384033e-01
4.509877e-01
4.607734e-01
4.672661e-01
5.890777e-01
5.870441e-01
5.761673e-01
5.566431e-01
5.289075e-01
4.937689e-01
4.525604e-01
4.072688e-01
3.605811e-01
3.157950e-01
2.765576e-01
2.464406e-01
2.284197e-01
2.243746e-01
2.347457e-01
2.584482e-01
2.930724e-01
3.353083e-01
3.814737e-01
4.280109e-01
4.718510e-01
5.106022e-01
5.425747e-01
5.666896e-01
5.823311e-01
5.891956e-01
5.871771e-01
5.763129e-01
5.567985e-01
5.290692e-01
4.939324e-01
4.527207e-01
4.074204e-01
3.607193e-01
3.159166e-01
2.766615e-01
2.465282e-01
2.284942e-01
2.244398e-01
2.348044e-01
2.585013e-01
2.931185e-01
3.353441e-01
3.814951e-01
4.280142e-01
4.718337e-01
5.105630e-01
5.425137e-01
5.666080e-01
5.822304e-01
7.851040e-01
7.822560e-01
7.669465e-01
7.384387e-01
6.956553e-01
6.376628e-01
5.643696e-01
4.773693e-01
3.807413e-01
2.814985e-01
1.893026e-01
1.151886e-01
6.938748e-02
5.882247e-02
8.519677e-02
1.444852e-01
2.280657e-01
3.249953e-01
4.245080e-01
5.178967e-01
5.993810e-01
6.660388e-01
7.171444e-01
7.532962e-01
7.756039e-01
7.850721e-01
7.822158e-01
7.668994e-01
7.383868e-01
6.956014e-01
6.376103e-01
5.643223e-01
4.773301e-01
3.807122e-01
2.814794e-01
1.892921e-01
1.151841e-01
6.938628e-02
5.882198e-02
8.519470e-02
1.444797e-01
2.280557e-01
3.249811e-01
4.244914e-01
5.178806e-01
5.993688e-01
6.660333e-01
7.171476e-01
7.533090e-01
7.756265e-01
9.686611e-01
9.670959e-01
9.584009e-01
9.402353e-01
9.085792e-01
8.582664e-01
7.840613e-01
6.824900e-01
5.543809e-01
4.075201e-01
2.580970e-01
1.292326e-01
4.562714e-02
2.554199e-02
7.376168e-02
1.795584e-01
3.209535e-01
4.727253e-01
6.138665e-01
7.315307e-01
8.211523e-01
8.842118e-01
9.253904e-01
9.502105e-01
9.635079e-01
9.686222e-01
9.670494e-01
9.583430e-01
9.401618e-01
9.084872e-01
8.581558e-01
7.839365e-01
6.823603e-01
5.542594e-01
4.074204e-01
2.580280e-01
1.291945e-01
4.561007e-02
2.553075e-02
7.374298e-02
1.795269e-01
3.209128e-01
4.726845e-01
6.138349e-01
7.315140e-01
8.211515e-01
8.842246e-01
9.254130e-01
9.502395e-01
9.635416e-01
9.702097e-01
9.717873e-01
9.790378e-01
9.894155e-01
9.982310e-01
9.985893e-01
9.817838e-01
9.387378e-01
8.630393e-01
7.554577e-01
6.283572e-01
5.066962e-01
4.221720e-01
4.006934e-01
4.495687e-01
5.534167e-01
6.820854e-01
8.046607e-01
9.003894e-01
9.619074e-01
9.922969e-01
9.999936e-01
9.945370e-01
9.841483e-01
9.748137e-01
9.701866e-01
9.717605e-01
9.790116e-01
9.893953e-01
9.982223e-01
9.985970e-01
9.818106e-01
9.387828e-01
8.630984e-01
7.555236e-01
6.284225e-01
5.067559e-01
4.222250e-01
4.007414e-01
4.496136e-01
5.534584e-01
6.821213e-01
8.046878e-01
9.004059e-01
9.619145e-01
9.922981e-01
9.999936e-01
9.945401e-01
9.841577e-01
9.748304e-01
7.588656e-01
7.625511e-01
7.799671e-01
8.098101e-01
8.495484e-01
8.950183e-01
9.401131e-01
9.770267e-01
9.976661e-01
9.965889e-01
9.747683e-01
9.418899e-01
9.140925e-01
9.062274e-01
9.228125e-01
9.548532e-01
9.855028e-01
9.997957e-01
9.911726e-01
9.618759e-01
9.193990e-01
8.724801e-01
8.285888e-01
7.930634e-01
7.692300e-01
7.588501e-01
7.625325e-01
7.799470e-01
8.097901e-01
8.495281e-01
8.949993e-01
9.400983e-01
9.770171e-01
9.976628e-01
9.965927e-01
9.747779e-01
9.419039e-01
9.141081e-01
9.062415e-01
9.228241e-01
9.548612e-01
9.855062e-01
9.997960e-01
9.911712e-01
9.618752e-01
9.194008e-01
8.724839e-01
8.285958e-01
7.930748e-01
7.692437e-01
4.850339e-01
4.886499e-01
5.053737e-01
5.348642e-01
5.763552e-01
6.282696e-01
6.878680e-01
7.510618e-01
8.125876e-01
8.668644e-01
9.094270e-01
9.382007e-01
9.536550e-01
9.573427e-01
9.497613e-01
9.295548e-01
8.949924e-01
8.463239e-01
7.868641e-01
7.222048e-01
6.585093e-01
6.010088e-01
5.533224e-01
5.175563e-01
4.947064e-01
4.850845e-01
4.886986e-01
5.054290e-01
5.349356e-01
5.764250e-01
6.283351e-01
6.879431e-01
7.511331e-01
8.126431e-01
8.669163e-01
9.094736e-01
9.382329e-01
9.536809e-01
9.573698e-01
9.497851e-01
9.295755e-01
8.950189e-01
8.463488e-01
7.868761e-01
7.222158e-01
6.585178e-01
6.009972e-01
5.533010e-01
5.175359e-01
4.946708e-01
2.713013e-01
2.738959e-01
2.854529e-01
3.059028e-01
3.350586e-01
3.722669e-01
4.162115e-01
4.648312e-01
5.151769e-01
5.635676e-01
6.060839e-01
6.389857e-01
6.591398e-01
6.645294e-01
6.544676e-01
6.296041e-01
5.920712e-01
5.454115e-01
4.939523e-01
4.421026e-01
3.937930e-01
3.519071e-01
3.181358e-01
2.933223e-01
2.777371e-01
2.712880e-01
2.738483e-01
2.853984e-01
3.058734e-01
3.350062e-01
3.721878e-01
4.161630e-01
4.647826e-01
5.150896e-01
5.635036e-01
6.060470e-01
6.389144e-01
6.590713e-01
6.645033e-01
6.544242e-01
6.295415e-01
5.920528e-01
5.454006e-01
4.939105e-01
4.420925e-01
3.938123e-01
3.518993e-01
3.181363e-01
2.933600e-01
2.777625e-01
1.397065e-01
1.412933e-01
1.481044e-01
1.600657e-01
1.770545e-01
1.986549e-01
2.240668e-01
2.521329e-01
2.812309e-01
3.093476e-01
3.343382e-01
3.540155e-01
3.663257e-01
3.698107e-01
3.639318e-01
3.491154e-01
3.267984e-01
2.992804e-01
2.691639e-01
2.389442e-01
2.108505e-01
1.865141e-01
1.668797e-01
1.524598e-01
1.434307e-01
1.397345e-01
1.413031e-01
1.481153e-01
1.601040e-01
1.770825e-01
1.986659e-01
2.241100e-01
2.521812e-01
2.812445e-01
3.093838e-01
3.343992e-01
3.540361e-01
3.663434e-01
3.698668e-01
3.639611e-01
3.491132e-01
3.268324e-01
2.993112e-01
2.691510e-01
2.389507e-01
2.108710e-01
1.864998e-01
1.668653e-01
1.524653e-01
1.434184e-01
6.813877e-02
6.900605e-02
7.265906e-02
7.903510e-02
8.799439e-02
9.923402e-02
1.122454e-01
1.263330e-01
1.406576e-01
1.543198e-01
1.663733e-01
1.758386e-01
1.818185e-01
1.836091e-01
1.808790e-01
1.738306e-01
1.631167e-01
1.497258e-01
1.348508e-01
1.196898e-01
1.053503e-01
9.273035e-02
8.244597e-02
7.485331e-02
7.007586e-02
6.812885e-02
6.900100e-02
7.265131e-02
7.902174e-02
8.798330e-02
9.922334e-02
1.122288e-01
1.263153e-01
1.406440e-01
1.543034e-01
1.663509e-01
1.758239e-01
1.818061e-01
1.835874e-01
1.808667e-01
1.738234e-01
1.631037e-01
1.497181e-01
1.348479e-01
1.196882e-01
1.053469e-01
9.273165e-02
8.245199e-02
7.485381e-02
7.008078e-02
3.182562e-02
3.227513e-02
3.411888e-02
3.730864e-02
4.173250e-02
4.718606e-02
5.336650e-02
5.989600e-02
6.637962e-02
7.244835e-02
7.773941e-02
8.188242e-02
8.451581e-02
8.534217e-02
8.420573e-02
8.116984e-02
7.649232e-02
7.055451e-02
6.382990e-02
5.682903e-02
5.005787e-02
4.397494e-02
3.893744e-02
3.517375e-02
3.279120e-02
3.182765e-02
3.227898e-02
3.412298e-02
3.731257e-02
4.173740e-02
4.719300e-02
5.337231e-02
5.990215e-02
6.638832e-02
7.245627e-02
7.774557e-02
8.189060e-02
8.452492e-02
8.534657e-02
8.421176e-02
8.117715e-02
7.649464e-02
7.055745e-02
6.383300e-02
5.683027e-02
5.005721e-02
4.397482e-02
3.893726e-02
3.517088e-02
3.278920e-02
1.432922e-02
1.454926e-02
1.543325e-02
1.694914e-02
1.902607e-02
2.154114e-02
2.432354e-02
2.718789e-02
2.996631e-02
3.251975e-02
3.472578e-02
3.645923e-02
3.756825e-02
3.792585e-02
3.747089e-02
3.622102e-02
3.427474e-02
3.178099e-02
2.890859e-02
2.584918e-02
2.281855e-02
2.003648e-02
1.769073e-02
1.591559e-02
1.478563e-02
1.432881e-02
1.454729e-02
1.543120e-02
1.694793e-02
1.902369e-02
2.153785e-02
2.432114e-02
2.718546e-02
2.996202e-02
3.251604e-02
3.472382e-02
3.645511e-02
3.756369e-02
3.792477e-02
3.746785e-02
3.621746e-02
3.427380e-02
3.178018e-02
2.890665e-02
2.584862e-02
2.281930e-02
2.003633e-02
1.769060e-02
1.591711e-02
1.478668e-02
6.270588e-03
6.372493e-03
6.778198e-03
7.468667e-03
8.401254e-03
9.510014e-03
1.070971e-02
1.191482e-02
1.305719e-02
1.409337e-02
1.498509e-02
1.568647e-02
1.613975e-02
1.629222e-02
1.611187e-02
1.561057e-02
1.482855e-02
1.381729e-02
1.263747e-02
1.135753e-02
1.006062e-02
8.843006e-03
7.797069e-03
6.995057e-03
6.479843e-03
6.270701e-03
6.373314e-03
6.779085e-03
7.469068e-03
8.402238e-03
9.511420e-03
1.071066e-02
1.191573e-02
1.305900e-02
1.409491e-02
1.498567e-02
1.568831e-02
1.614142e-02
1.629274e-02
1.611291e-02
1.561216e-02
1.482880e-02
1.381761e-02
1.263829e-02
1.135775e-02
1.006027e-02
8.843099e-03
7.797161e-03
6.994384e-03
6.479424e-03
2.716819e-03
2.762385e-03
2.942363e-03
3.246248e-03
3.651869e-03
4.125406e-03
4.626147e-03
5.117254e-03
5.574115e-03
5.983466e-03
6.335388e-03
6.614816e-03
6.796779e-03
6.858207e-03
6.787987e-03
6.590082e-03
6.281214e-03
5.882020e-03
5.411956e-03
4.892539e-03
4.354851e-03
3.839252e-03
3.388061e-03
3.036882e-03
2.809392e-03
2.716819e-03
2.762084e-03
2.942075e-03
3.246129e-03
3.651492e-03
4.124975e-03
4.625859e-03
5.116896e-03
5.573512e-03
5.983006e-03
6.335186e-03
6.614175e-03
6.796188e-03
6.858107e-03
6.787650e-03
6.589459e-03
6.281132e-03
5.882044e-03
5.411587e-03
4.892417e-03
4.355070e-03
3.839206e-03
3.387987e-03
3.037131e-03
2.809561e-03
1.201559e-03
1.221374e-03
1.300265e-03
1.432140e-03
1.605764e-03
1.804551e-03
2.010445e-03
2.208035e-03
2.388284e-03
2.548365e-03
2.686247e-03
2.795574e-03
2.867598e-03
2.892407e-03
2.864951e-03
2.787732e-03
2.667371e-03
2.511357e-03
2.326186e-03
2.118683e-03
1.899492e-03
1.684725e-03
1.493110e-03
1.341598e-03
1.242224e-03
1.201517e-03
1.221439e-03
1.300365e-03
1.432089e-03
1.605772e-03
1.804731e-03
2.010484e-03
2.207936e-03
2.388465e-03
2.548527e-03
2.686124e-03
2.795692e-03
2.867748e-03
2.892350e-03
2.865058e-03
2.787778e-03
2.667335e-03
2.511447e-03
2.326225e-03
2.118616e-03
1.899510e-03
1.684766e-03
1.493082e-03
1.341552e-03
1.242202e-03
5.642869e-04
5.730834e-04
6.078745e-04
6.657036e-04
7.407856e-04
8.252435e-04
9.107826e-04
9.910279e-04
1.062951e-03
1.126145e-03
1.180324e-03
1.223684e-03
1.252211e-03
1.262036e-03
1.251321e-03
1.220956e-03
1.173694e-03
1.112344e-03
1.038864e-03
9.550904e-04
8.647799e-04
7.744565e-04
6.922832e-04
6.262434e-04
5.824436e-04
5.643299e-04
5.730969e-04
6.079141e-04
6.657503e-04
7.407992e-04
8.253150e-04
9.108474e-04
9.910518e-04
1.063014e-03
1.126214e-03
1.180387e-03
1.223720e-03
1.252245e-03
1.262123e-03
1.251364e-03
1.220951e-03
1.173729e-03
1.112423e-03
1.038843e-03
9.550695e-04
8.648312e-04
7.744493e-04
6.922439e-04
6.262467e-04
5.824356e-04
2.915456e-04
2.955629e-04
3.115691e-04
3.378529e-04
3.715464e-04
4.087925e-04
4.457213e-04
4.796606e-04
5.095368e-04
5.353659e-04
5.573582e-04
5.748367e-04
5.863702e-04
5.903907e-04
5.861289e-04
5.739576e-04
5.549116e-04
5.299516e-04
4.996054e-04
4.644493e-04
4.258511e-04
3.864189e-04
3.498447e-04
3.199796e-04
2.999008e-04
2.915173e-04
2.955300e-04
3.115152e-04
3.378156e-04
3.715117e-04
4.087028e-04
4.456622e-04
4.796267e-04
5.094451e-04
5.352892e-04
5.573092e-04
5.747713e-04
5.863072e-04
5.903313e-04
5.860787e-04
5.739214e-04
5.548846e-04
5.299032e-04
4.995936e-04
4.644576e-04
4.258323e-04
3.864174e-04
3.498687e-04
3.199984e-04
2.999179e-04
1.686794e-04
1.706166e-04
1.783461e-04
1.909984e-04
2.069928e-04
2.244109e-04
2.414168e-04
2.567216e-04
2.698899e-04
2.810931e-04
2.904623e-04
2.978403e-04
3.026911e-04
3.044081e-04
3.026702e-04
2.975975e-04
2.895620e-04
2.788313e-04
2.655334e-04
2.498379e-04
2.322589e-04
2.139786e-04
1.967575e-04
1.824926e-04
1.727809e-04
1.686886e-04
1.706431e-04
1.783829e-04
1.910128e-04
2.070171e-04
2.244677e-04
2.414423e-04
2.567401e-04
2.699503e-04
2.811320e-04
2.904825e-04
2.978875e-04
3.027359e-04
3.044328e-04
3.027010e-04
2.976401e-04
2.895772e-04
2.788490e-04
2.655600e-04
2.498422e-04
2.322557e-04
2.139861e-04
1.967538e-04
1.824706e-04
1.727681e-04
1.089220e-04
1.099148e-04
1.138861e-04
1.203320e-04
1.284596e-04
1.372146e-04
1.456184e-04
1.530599e-04
1.593410e-04
1.645231e-04
1.687754e-04
1.720820e-04
1.742334e-04
1.749923e-04
1.742549e-04
1.720342e-04
1.684121e-04
1.634859e-04
1.572395e-04
1.496660e-04
1.410313e-04
1.319398e-04
1.232654e-04
1.160018e-04
1.110365e-04
1.089359e-04
1.099121e-04
1.138809e-04
1.203487e-04
1.284647e-04
1.372026e-04
1.456314e-04
1.530748e-04
1.593293e-04
1.645312e-04
1.687994e-04
1.720831e-04
1.742388e-04
1.750207e-04
1.742738e-04
1.720360e-04
1.684381e-04
1.635107e-04
1.572386e-04
1.496774e-04
1.410522e-04
1.319366e-04
1.232601e-04
1.160137e-04
1.110346e-04
7.706905e-05
7.761417e-05
7.977601e-05
8.328511e-05
8.765156e-05
9.232569e-05
9.678559e-05
1.006872e-04
1.039046e-04
1.065082e-04
1.085695e-04
1.101122e-04
1.111053e-04
1.114775e-04
1.111473e-04
1.101184e-04
1.084086e-04
1.059754e-04
1.027929e-04
9.887381e-05
9.433592e-05
8.949225e-05
8.483056e-05
8.090923e-05
7.820590e-05
7.705232e-05
7.760853e-05
7.977018e-05
8.326733e-05
8.764221e-05
9.232166e-05
9.677222e-05
1.006747e-04
1.039063e-04
1.065047e-04
1.085603e-04
1.101207e-04
1.111155e-04
1.114778e-04
1.111574e-04
1.101396e-04
1.084173e-04
1.059833e-04
1.028151e-04
9.888718e-05
9.433998e-05
8.950749e-05
8.484649e-05
8.091243e-05
7.821487e-05
5.841014e-05
5.871127e-05
5.993696e-05
6.191758e-05
6.439538e-05
6.703991e-05
6.955603e-05
7.172021e-05
7.347753e-05
7.484937e-05
7.589739e-05
7.666740e-05
7.716111e-05
7.733952e-05
7.719531e-05
7.670244e-05
7.584179e-05
7.458508e-05
7.287016e-05
7.070580e-05
6.816877e-05
6.543637e-05
6.280802e-05
6.059218e-05
5.905977e-05
5.841744e-05
5.872253e-05
5.995312e-05
6.193410e-05
6.441438e-05
6.706803e-05
6.957899e-05
7.174618e-05
7.350908e-05
7.487582e-05
7.592434e-05
7.669346e-05
7.718578e-05
7.736077e-05
7.721377e-05
7.672142e-05
7.585557e-05
7.459621e-05
7.288160e-05
7.071388e-05
6.817246e-05
6.544126e-05
6.280899e-05
6.058816e-05
5.905571e-05
4.632369e-05
4.650750e-05
4.721341e-05
4.837094e-05
4.983352e-05
5.139911e-05
5.286319e-05
5.412455e-05
5.512061e-05
5.586524e-05
5.641761e-05
5.681955e-05
5.706284e-05
5.716042e-05
5.709488e-05
5.685409e-05
5.640335e-05
5.571257e-05
5.476517e-05
5.351551e-05
5.202550e-05
5.043787e-05
4.889658e-05
4.759432e-05
4.671484e-05
4.633335e-05
4.650394e-05
4.720634e-05
4.837657e-05
4.983034e-05
5.138219e-05
5.286347e-05
5.412053e-05
5.509917e-05
5.585609e-05
5.641212e-05
5.680068e-05
5.704391e-05
5.715351e-05
5.708247e-05
5.682943e-05
5.639498e-05
5.570708e-05
5.474388e-05
5.350358e-05
5.202656e-05
5.042409e-05
4.888423e-05
4.759850e-05
4.671085e-05
3.745427e-05
3.755806e-05
3.799437e-05
3.868962e-05
3.954719e-05
4.046105e-05
4.133034e-05
4.206524e-05
4.264007e-05
4.306838e-05
4.336862e-05
4.355610e-05
4.368048e-05
4.373063e-05
4.370060e-05
4.357841e-05
4.335042e-05
4.297583e-05
4.241435e-05
4.169662e-05
4.083847e-05
3.988932e-05
3.897195e-05
3.820347e-05
3.766068e-05
3.743546e-05
3.755008e-05
3.798497e-05
3.866618e-05
3.953179e-05
4.045080e-05
4.130597e-05
4.204481e-05
4.263224e-05
4.305076e-05
4.334817e-05
4.355008e-05
4.367535e-05
4.371557e-05
4.369318e-05
4.358572e-05
4.334347e-05
4.296702e-05
4.242489e-05
4.170107e-05
4.083066e-05
3.989871e-05
3.898510e-05
3.820192e-05
3.766935e-05
2.976199e-05
2.982096e-05
3.005885e-05
3.046381e-05
3.096706e-05
3.149953e-05
3.200982e-05
3.242956e-05
3.274687e-05
3.297417e-05
3.312103e-05
3.322426e-05
3.328278e-05
3.331243e-05
3.330753e-05
3.325453e-05
3.313665e-05
3.293304e-05
3.263104e-05
3.221941e-05
3.171928e-05
3.117377e-05
3.064999e-05
3.020355e-05
2.989710e-05
2.976673e-05
2.982826e-05
3.007205e-05
3.047398e-05
3.097683e-05
3.152367e-05
3.202666e-05
3.244286e-05
3.277003e-05
3.299406e-05
3.313587e-05
3.324021e-05
3.329850e-05
3.332456e-05
3.331927e-05
3.326176e-05
3.314352e-05
3.294289e-05
3.263563e-05
3.222019e-05
3.172487e-05
3.117789e-05
3.064774e-05
3.020229e-05
2.989573e-05
2.194928e-05
2.199026e-05
2.212424e-05
2.232918e-05
2.261211e-05
2.292114e-05
2.317343e-05
2.339431e-05
2.356468e-05
2.366691e-05
2.374299e-05
2.380207e-05
2.383237e-05
2.383726e-05
2.382689e-05
2.380038e-05
2.374172e-05
2.365176e-05
2.351668e-05
2.330051e-05
2.302471e-05
2.273437e-05
2.243774e-05
2.219074e-05
2.204003e-05
2.197341e-05
2.199696e-05
2.212282e-05
2.235418e-05
2.262791e-05
2.290346e-05
2.318733e-05
2.341240e-05
2.354672e-05
2.366559e-05
2.375716e-05
2.379428e-05
2.382330e-05
2.384680e-05
2.382610e-05
2.379003e-05
2.374808e-05
2.365137e-05
2.350277e-05
2.329973e-05
2.302543e-05
2.271534e-05
2.242430e-05
2.219073e-05
2.202514e-05
1.376529e-05
1.377038e-05
1.384060e-05
1.395927e-05
1.407889e-05
1.419150e-05
1.433054e-05
1.443571e-05
1.450027e-05
1.455648e-05
1.458714e-05
1.457933e-05
1.458739e-05
1.460023e-05
1.460836e-05
1.460662e-05
1.459114e-05
1.454148e-05
1.445274e-05
1.436082e-05
1.424874e-05
1.411006e-05
1.398331e-05
1.387038e-05
1.376883e-05
1.373112e-05
1.375677e-05
1.383592e-05
1.392228e-05
1.405455e-05
1.420415e-05
1.430937e-05
1.440831e-05
1.451560e-05
1.455543e-05
1.456626e-05
1.458623e-05
1.459598e-05
1.458823e-05
1.460870e-05
1.461811e-05
1.458313e-05
1.454376e-05
1.446872e-05
1.436225e-05
1.425080e-05
1.413394e-05
1.400187e-05
1.387455e-05
1.379067e-05
6.336491e-06
6.354017e-06
6.374031e-06
6.409848e-06
6.458085e-06
6.519081e-06
6.557402e-06
6.583212e-06
6.615529e-06
6.632416e-06
6.630776e-06
6.653171e-06
6.651139e-06
6.650197e-06
6.645543e-06
6.636238e-06
6.632124e-06
6.625237e-06
6.609033e-06
6.573217e-06
6.533217e-06
6.480335e-06
6.424926e-06
6.382411e-06
6.361776e-06
6.345789e-06
6.353291e-06
6.363859e-06
6.413874e-06
6.454396e-06
6.492495e-06
6.542226e-06
6.576378e-06
6.583807e-06
6.603070e-06
6.616588e-06
6.625816e-06
6.623659e-06
6.630716e-06
6.623566e-06
6.616695e-06
6.619667e-06
6.602875e-06
6.594737e-06
6.566996e-06
6.517877e-06
6.465336e-06
6.418209e-06
6.377317e-06
6.353119e-06
1.642575e-06
1.635391e-06
1.642416e-06
1.647428e-06
1.658813e-06
1.661574e-06
1.670559e-06
1.685103e-06
1.683189e-06
1.679452e-06
1.692487e-06
1.683810e-06
1.691115e-06
1.688635e-06
1.691972e-06
1.698594e-06
1.694747e-06
1.693072e-06
1.695092e-06
1.692714e-06
1.677489e-06
1.674029e-06
1.669806e-06
1.660075e-06
1.652703e-06
1.658854e-06
1.654056e-06
1.670674e-06
1.670937e-06
1.685320e-06
1.701472e-06
1.709461e-06
1.714584e-06