# vtk DataFile Version 3.0
Tensor
ASCII
DATASET UNSTRUCTURED_GRID
POINTS 1650 float
0.000087556026434 0.000000000000000 0.000000000000000
0.000086865621014 0.000010973679911 0.000000000000000
0.000084805292859 0.000021774298334 0.000000000000000
0.000081407534576 0.000032231523066 0.000000000000000
0.000076725930842 0.000042180437424 0.000000000000000
0.000070834313345 0.000051464141087 0.000000000000000
0.000063825596412 0.000059936224502 0.000000000000000
0.000055810311696 0.000067463077852 0.000000000000000
0.000046914865025 0.000073925998164 0.000000000000000
0.000037279542907 0.000079223061324 0.000000000000000
0.000027056300128 0.000083270729481 0.000000000000000
0.000016406363333 0.000086005168491 0.000000000000000
0.000005497688388 0.000087383254616 0.000000000000000
-0.000005497688388 0.000087383254616 0.000000000000000
-0.000016406363333 0.000086005168491 0.000000000000000
-0.000027056300128 0.000083270729481 0.000000000000000
-0.000037279542907 0.000079223061324 0.000000000000000
-0.000046914865025 0.000073925998164 0.000000000000000
-0.000055810311696 0.000067463077852 0.000000000000000
-0.000063825596412 0.000059936224502 0.000000000000000
-0.000070834313345 0.000051464141087 0.000000000000000
-0.000076725930842 0.000042180437424 0.000000000000000
-0.000081407534576 0.000032231523066 0.000000000000000
-0.000084805292859 0.000021774298334 0.000000000000000
-0.000086865621014 0.000010973679911 0.000000000000000
-0.000087556026434 0.000000000000000 0.000000000000000
-0.000086865621014 -0.000010973679911 0.000000000000000
-0.000084805292859 -0.000021774298334 0.000000000000000
-0.000081407534576 -0.000032231523066 0.000000000000000
-0.000076725930842 -0.000042180437424 0.000000000000000
-0.000070834313345 -0.000051464141087 0.000000000000000
-0.000063825596412 -0.000059936224502 0.000000000000000
-0.000055810311696 -0.000067463077852 0.000000000000000
-0.000046914865025 -0.000073925998164 0.000000000000000
-0.000037279542907 -0.000079223061324 0.000000000000000
-0.000027056300128 -0.000083270729481 0.000000000000000
-0.000016406363333 -0.000086005168491 0.000000000000000
-0.000005497688388 -0.000087383254616 0.000000000000000
0.000005497688388 -0.000087383254616 0.000000000000000
0.000016406363333 -0.000086005168491 0.000000000000000
0.000027056300128 -0.000083270729481 0.000000000000000
0.000037279542907 -0.000079223061324 0.000000000000000
0.000046914865025 -0.000073925998164 0.000000000000000
0.000055810311696 -0.000067463077852 0.000000000000000
0.000063825596412 -0.000059936224502 0.000000000000000
0.000070834313345 -0.000051464141087 0.000000000000000
0.000076725930842 -0.000042180437424 0.000000000000000
0.000081407534576 -0.000032231523066 0.000000000000000
0.000084805292859 -0.000021774298334 0.000000000000000
0.000086865621014 -0.000010973679911 0.000000000000000
0.003371443549894 0.000000000000000 0.000000000000000
0.003344858710501 0.000422553921888 0.000000000000000
0.003265523451123 0.000838443916006 0.000000000000000
0.003134688936191 0.001241111148706 0.000000000000000
0.002954418504162 0.001624205317188 0.000000000000000
0.002727555127440 0.001981684797564 0.000000000000000
0.002457676576995 0.002307911924882 0.000000000000000
0.002149038998786 0.002597741902464 0.000000000000000
0.001806509791792 0.002846603938429 0.000000000000000
0.001435490846225 0.003050573329806 0.000000000000000
0.001041833352493 0.003206433357448 0.000000000000000
0.000631745524431 0.003311726015612 0.000000000000000
0.000211694692062 0.003364790776181 0.000000000000000
-0.000211694692062 0.003364790776181 0.000000000000000
-0.000631745524431 0.003311726015612 0.000000000000000
-0.001041833352493 0.003206433357448 0.000000000000000
-0.001435490846225 0.003050573329806 0.000000000000000
-0.001806509791792 0.002846603938429 0.000000000000000
-0.002149038998786 0.002597741902464 0.000000000000000
-0.002457676576995 0.002307911924882 0.000000000000000
-0.002727555127440 0.001981684797564 0.000000000000000
-0.002954418504162 0.001624205317188 0.000000000000000
-0.003134688936191 0.001241111148706 0.000000000000000
-0.003265523451123 0.000838443916006 0.000000000000000
-0.003344858710501 0.000422553921888 0.000000000000000
-0.003371443549894 0.000000000000000 0.000000000000000
-0.003344858710501 -0.000422553921888 0.000000000000000
-0.003265523451123 -0.000838443916006 0.000000000000000
-0.003134688936191 -0.001241111148706 0.000000000000000
-0.002954418504162 -0.001624205317188 0.000000000000000
-0.002727555127440 -0.001981684797564 0.000000000000000
-0.002457676576995 -0.002307911924882 0.000000000000000
-0.002149038998786 -0.002597741902464 0.000000000000000
-0.001806509791792 -0.002846603938429 0.000000000000000
-0.001435490846225 -0.003050573329806 0.000000000000000
-0.001041833352493 -0.003206433357448 0.000000000000000
-0.000631745524431 -0.003311726015612 0.000000000000000
-0.000211694692062 -0.003364790776181 0.000000000000000
0.000211694692062 -0.003364790776181 0.000000000000000
0.000631745524431 -0.003311726015612 0.000000000000000
0.001041833352493 -0.003206433357448 0.000000000000000
0.001435490846225 -0.003050573329806 0.000000000000000
0.001806509791792 -0.002846603938429 0.000000000000000
0.002149038998786 -0.002597741902464 0.000000000000000
0.002457676576995 -0.002307911924882 0.000000000000000
0.002727555127440 -0.001981684797564 0.000000000000000
0.002954418504162 -0.001624205317188 0.000000000000000
0.003134688936191 -0.001241111148706 0.000000000000000
0.003265523451123 -0.000838443916006 0.000000000000000
0.003344858710501 -0.000422553921888 0.000000000000000
0.011400754268046 0.000000000000000 0.000000000000000
0.011310855915403 0.001428893397486 0.000000000000000
0.011042578608195 0.002835252292515 0.000000000000000
0.010600153239820 0.004196897565192 0.000000000000000
0.009990557122628 0.005492355256162 0.000000000000000
0.009223403951542 0.006701195223768 0.000000000000000
0.008310792190347 0.007804353339595 0.000000000000000
0.007267114271682 0.008784432141162 0.000000000000000
0.006108829619790 0.009625975200298 0.000000000000000
0.004854205075556 0.010315710880246 0.000000000000000
0.003523026817519 0.010842761637305 0.000000000000000
0.002136288322015 0.011198815566193 0.000000000000000
0.000715859283517 0.011378257483753 0.000000000000000
-0.000715859283517 0.011378257483753 0.000000000000000
-0.002136288322015 0.011198815566193 0.000000000000000
-0.003523026817519 0.010842761637305 0.000000000000000
-0.004854205075556 0.010315710880246 0.000000000000000
-0.006108829619790 0.009625975200298 0.000000000000000
-0.007267114271682 0.008784432141162 0.000000000000000
-0.008310792190347 0.007804353339595 0.000000000000000
-0.009223403951542 0.006701195223768 0.000000000000000
-0.009990557122628 0.005492355256162 0.000000000000000
-0.010600153239820 0.004196897565192 0.000000000000000
-0.011042578608195 0.002835252292515 0.000000000000000
-0.011310855915403 0.001428893397486 0.000000000000000
-0.011400754268046 0.000000000000000 0.000000000000000
-0.011310855915403 -0.001428893397486 0.000000000000000
-0.011042578608195 -0.002835252292515 0.000000000000000
-0.010600153239820 -0.004196897565192 0.000000000000000
-0.009990557122628 -0.005492355256162 0.000000000000000
-0.009223403951542 -0.006701195223768 0.000000000000000
-0.008310792190347 -0.007804353339595 0.000000000000000
-0.007267114271682 -0.008784432141162 0.000000000000000
-0.006108829619790 -0.009625975200298 0.000000000000000
-0.004854205075556 -0.010315710880246 0.000000000000000
-0.003523026817519 -0.010842761637305 0.000000000000000
-0.002136288322015 -0.011198815566193 0.000000000000000
-0.000715859283517 -0.011378257483753 0.000000000000000
0.000715859283517 -0.011378257483753 0.000000000000000
0.002136288322015 -0.011198815566193 0.000000000000000
0.003523026817519 -0.010842761637305 0.000000000000000
0.004854205075556 -0.010315710880246 0.000000000000000
0.006108829619790 -0.009625975200298 0.000000000000000
0.007267114271682 -0.008784432141162 0.000000000000000
0.008310792190347 -0.007804353339595 0.000000000000000
0.009223403951542 -0.006701195223768 0.000000000000000
0.009990557122628 -0.005492355256162 0.000000000000000
0.010600153239820 -0.004196897565192 0.000000000000000
0.011042578608195 -0.002835252292515 0.000000000000000
0.011310855915403 -0.001428893397486 0.000000000000000
0.024099019329368 0.000000000000000 0.000000000000000
0.023908991363928 0.003020408018278 0.000000000000000
0.023341904322139 0.005993182397804 0.000000000000000
0.022406701505413 0.008871440710763 0.000000000000000
0.021118131620831 0.011609791104171 0.000000000000000
0.019496516185229 0.014165048156514 0.000000000000000
0.017567429042731 0.016496913937638 0.000000000000000
0.015361293049956 0.018568613531188 0.000000000000000
0.012912900289392 0.020347474996998 0.000000000000000
0.010260863377471 0.021805444627114 0.000000000000000
0.007447006520545 0.022919529369518 0.000000000000000
0.004515705922164 0.023672159442302 0.000000000000000
0.001513189943838 0.024051465419619 0.000000000000000
-0.001513189943838 0.024051465419619 0.000000000000000
-0.004515705922164 0.023672159442302 0.000000000000000
-0.007447006520545 0.022919529369518 0.000000000000000
-0.010260863377471 0.021805444627114 0.000000000000000
-0.012912900289392 0.020347474996998 0.000000000000000
-0.015361293049956 0.018568613531188 0.000000000000000
-0.017567429042731 0.016496913937638 0.000000000000000
-0.019496516185229 0.014165048156514 0.000000000000000
-0.021118131620831 0.011609791104171 0.000000000000000
-0.022406701505413 0.008871440710763 0.000000000000000
-0.023341904322139 0.005993182397804 0.000000000000000
-0.023908991363928 0.003020408018278 0.000000000000000
-0.024099019329368 0.000000000000000 0.000000000000000
-0.023908991363928 -0.003020408018278 0.000000000000000
-0.023341904322139 -0.005993182397804 0.000000000000000
-0.022406701505413 -0.008871440710763 0.000000000000000
-0.021118131620831 -0.011609791104171 0.000000000000000
[...]
POINT_DATA 1650

SCALARS beta float 1
LOOKUP_TABLE default
5.093128e-06
5.093130e-06
5.093129e-06
5.093125e-06
5.093119e-06
5.093110e-06
5.093100e-06
5.093087e-06
5.093072e-06
5.093056e-06
5.093039e-06
5.093020e-06
5.093001e-06
5.092981e-06
5.092961e-06
5.092942e-06
5.092923e-06
5.092904e-06
5.092887e-06
5.092871e-06
5.092857e-06
5.092845e-06
5.092834e-06
5.092826e-06
5.092820e-06
5.092816e-06
5.092814e-06
5.092815e-06
5.092819e-06
5.092824e-06
5.092832e-06
5.092842e-06
5.092854e-06
5.092868e-06
5.092884e-06
5.092901e-06
5.092919e-06
5.092938e-06
5.092958e-06
5.092978e-06
5.092998e-06
5.093017e-06
5.093036e-06
5.093053e-06
5.093070e-06
5.093085e-06
5.093098e-06
5.093109e-06
5.093118e-06
5.093124e-06
5.086193e-06
5.086254e-06
5.086100e-06
5.085738e-06
5.085184e-06
5.084464e-06
5.083606e-06
5.082647e-06
5.081623e-06
5.080574e-06
5.079537e-06
5.078545e-06
5.077629e-06
5.076810e-06
5.076106e-06
5.075524e-06
5.075066e-06
5.074725e-06
5.074490e-06
5.074343e-06
5.074265e-06
5.074234e-06
5.074230e-06
5.074231e-06
5.074225e-06
5.074198e-06
5.074146e-06
5.074070e-06
5.073975e-06
5.073875e-06
5.073787e-06
5.073730e-06
5.073726e-06
5.073800e-06
5.073971e-06
5.074258e-06
5.074673e-06
5.075225e-06
5.075912e-06
5.076728e-06
5.077656e-06
5.078674e-06
5.079753e-06
5.080858e-06
5.081952e-06
5.082994e-06
5.083947e-06
5.084772e-06
5.085437e-06
5.085917e-06
4.967549e-06
4.967831e-06
4.966436e-06
4.963450e-06
4.959039e-06
4.953442e-06
4.946956e-06
4.939923e-06
4.932705e-06
4.925672e-06
4.919175e-06
4.913524e-06
4.908976e-06
4.905710e-06
4.903823e-06
4.903320e-06
4.904118e-06
4.906048e-06
4.908874e-06
4.912308e-06
4.916031e-06
4.919720e-06
4.923066e-06
4.925799e-06
4.927701e-06
4.928624e-06
4.928493e-06
4.927313e-06
4.925165e-06
4.922201e-06
4.918637e-06
4.914737e-06
4.910797e-06
4.907131e-06
4.904049e-06
4.901838e-06
4.900740e-06
4.900940e-06
4.902543e-06
4.905572e-06
4.909956e-06
4.915537e-06
4.922073e-06
4.929258e-06
4.936736e-06
4.944124e-06
4.951041e-06
4.957126e-06
4.962062e-06
4.965596e-06
4.502512e-06
4.503730e-06
4.498451e-06
4.487042e-06
4.470160e-06
4.448723e-06
4.423875e-06
4.396944e-06
4.369395e-06
4.342763e-06
4.318575e-06
4.298249e-06
4.282994e-06
4.273703e-06
4.270869e-06
4.274524e-06
4.284228e-06
4.299094e-06
4.317870e-06
4.339042e-06
4.360977e-06
4.382054e-06
4.400790e-06
4.415943e-06
4.426573e-06
4.432081e-06
4.432209e-06
4.427024e-06
4.416896e-06
4.402458e-06
4.384580e-06
4.364333e-06
4.342951e-06
4.321788e-06
4.302257e-06
4.285753e-06
4.273565e-06
4.266770e-06
4.266138e-06
4.272043e-06
4.284404e-06
4.302669e-06
4.325843e-06
4.352559e-06
4.381190e-06
4.409985e-06
4.437204e-06
4.461252e-06
4.480781e-06
4.494759e-06
3.444410e-06
3.449596e-06
3.438077e-06
3.410872e-06
3.369499e-06
3.315929e-06
3.252612e-06
3.182533e-06
3.109246e-06
3.036827e-06
2.969718e-06
2.912428e-06
2.869139e-06
2.843251e-06
2.836959e-06
2.850916e-06
2.884072e-06
2.933705e-06
2.995680e-06
3.064897e-06
3.135859e-06
3.203270e-06
3.262536e-06
3.310105e-06
3.343603e-06
3.361791e-06
3.364399e-06
3.351914e-06
3.325390e-06
3.286323e-06
3.236607e-06
3.178560e-06
3.114991e-06
3.049235e-06
2.985131e-06
2.926882e-06
2.878785e-06
2.844854e-06
2.828381e-06
2.831507e-06
2.854877e-06
2.897445e-06
2.956485e-06
3.027819e-06
3.106250e-06
3.186124e-06
3.261941e-06
3.328874e-06
3.383131e-06
3.422118e-06
1.831450e-06
1.847063e-06
1.832661e-06
1.790300e-06
1.722386e-06
1.631713e-06
1.521799e-06
1.397352e-06
1.264628e-06
1.131420e-06
1.006526e-06
8.987701e-07
8.158907e-07
7.637548e-07
7.461263e-07
7.647908e-07
8.195428e-07
9.077325e-07
1.023630e-06
1.158280e-06
1.300343e-06
1.437815e-06
1.559959e-06
1.658736e-06
1.729345e-06
1.769922e-06
1.780762e-06
1.763432e-06
1.720090e-06
1.653150e-06
1.565311e-06
1.459891e-06
1.341281e-06
1.215307e-06
1.089260e-06
9.714369e-07
8.702440e-07
7.931726e-07
7.460557e-07
7.328339e-07
7.556366e-07
8.146986e-07
9.078153e-07
1.029605e-06
1.171271e-06
1.321383e-06
1.467610e-06
1.598720e-06
1.706114e-06
1.784458e-06
3.321380e-07
3.539966e-07
3.474604e-07
3.149380e-07
2.605875e-07
1.906666e-07
1.146740e-07
4.656702e-08
4.791152e-09
9.366656e-09
7.468388e-08
1.990192e-07
3.560774e-07
4.970471e-07
5.683404e-07
5.387216e-07
4.183620e-07
2.546980e-07
1.071517e-07
1.875556e-08
2.185023e-09
4.384230e-08
1.175056e-07
1.971984e-07
2.641254e-07
3.079351e-07
3.249011e-07
3.154290e-07
2.822293e-07
2.296064e-07
1.638173e-07
9.416999e-08
3.417969e-08
1.578538e-09
1.549165e-08
8.944469e-08
2.211130e-07
3.839128e-07
5.287973e-07
6.016416e-07
5.704103e-07
4.448688e-07
2.732298e-07
1.169722e-07
2.164309e-08
1.757166e-09
4.423388e-08
1.221484e-07
2.081559e-07
2.820030e-07
1.978976e-07
1.573261e-07
1.568521e-07
1.936739e-07
2.805854e-07
4.481724e-07
7.512610e-07
1.277476e-06
2.151592e-06
3.521430e-06
5.503390e-06
8.073253e-06
1.093339e-05
1.346519e-05
1.490092e-05
1.470640e-05
1.291928e-05
1.014090e-05
7.178461e-06
4.646313e-06
2.799203e-06
1.604511e-06
8.997115e-07
5.121481e-07
3.110939e-07
2.143882e-07
1.775574e-07
1.815735e-07
2.250475e-07
3.217412e-07
5.029284e-07
8.238191e-07
1.371999e-06
2.271794e-06
3.670694e-06
5.686116e-06
8.297484e-06
1.121234e-05
1.381282e-05
1.531911e-05
1.517139e-05
1.338195e-05
1.054594e-05
7.488620e-06
4.853644e-06
2.919189e-06
1.662442e-06
9.194880e-07
5.111744e-07
2.998273e-07
2.601695e-06
2.283131e-06
2.230249e-06
2.416165e-06
2.881689e-06
3.746526e-06
5.247132e-06
7.804835e-06
1.211660e-05
1.921291e-05
3.031605e-05
4.619981e-05
6.587532e-05
8.526298e-05
9.772208e-05
9.768932e-05
8.495844e-05
6.497051e-05
4.467546e-05
2.848447e-05
1.744656e-05
1.064756e-05
6.702500e-06
4.483323e-06
3.259992e-06
2.614554e-06
2.327990e-06
2.300998e-06
2.512433e-06
3.007140e-06
3.908323e-06
5.455696e-06
8.073613e-06
1.246255e-05
1.966020e-05
3.090830e-05
4.702662e-05
6.710101e-05
8.710283e-05
1.003030e-04
1.008583e-04
8.825776e-05
6.787592e-05
4.687427e-05
2.995059e-05
1.833063e-05
1.113925e-05
6.955043e-06
4.597480e-06
3.294726e-06
7.776756e-06
6.799460e-06
6.557836e-06
6.959125e-06
8.102760e-06
1.031882e-05
1.431642e-05
2.150622e-05
3.460466e-05
5.856568e-05
1.013777e-04
1.727092e-04
2.762772e-04
3.947093e-04
4.817248e-04
4.880907e-04
4.086633e-04
2.887141e-04
1.792898e-04
1.030329e-04
5.776037e-05
3.309989e-05
2.010518e-05
1.325886e-05
9.614961e-06
7.700918e-06
6.809678e-06
6.631337e-06
7.088660e-06
8.291747e-06
1.058140e-05
1.467808e-05
2.200494e-05
3.529662e-05
5.954290e-05
1.028260e-04
1.750798e-04
2.806096e-04
4.027549e-04
4.949644e-04
5.056854e-04
4.269628e-04
3.038352e-04
1.896447e-04
1.092236e-04
6.115791e-05
3.488292e-05
2.102126e-05
1.371793e-05
9.828834e-06
1.483597e-05
1.277585e-05
1.217786e-05
1.282051e-05
1.489071e-05
1.907905e-05
2.698465e-05
4.212004e-05
7.226409e-05
1.345984e-04
2.651013e-04
5.279730e-04
9.971797e-04
1.651681e-03
2.219155e-03
2.289851e-03
1.798188e-03
1.119410e-03
5.945721e-04
2.926232e-04
1.436785e-04
7.443176e-05
4.214890e-05
2.654410e-05
1.867294e-05
1.463885e-05
1.273458e-05
1.224473e-05
1.297787e-05
1.514155e-05
1.945001e-05
2.752826e-05
4.292173e-05
7.346762e-05
1.364554e-04
2.681348e-04
5.336958e-04
1.010328e-03
1.683400e-03
2.282853e-03
2.382081e-03
1.891077e-03
1.187418e-03
6.339971e-04
3.124397e-04
1.529945e-04
7.875974e-05
4.419618e-05
2.752872e-05
1.913885e-05
2.247616e-05
1.905125e-05
1.797685e-05
1.884091e-05
2.192825e-05
2.840633e-05
4.115395e-05
6.703642e-05
1.232446e-04
2.548385e-04
5.811053e-04
1.397029e-03
3.273934e-03
6.677626e-03
1.036685e-02
1.098871e-02
7.800544e-03
4.032006e-03
1.732736e-03
7.018743e-04
2.945942e-04
1.360464e-04
7.119873e-05
4.254763e-05
2.889939e-05
2.211975e-05
1.892667e-05
1.800248e-05
1.898578e-05
2.219498e-05
2.883336e-05
4.182262e-05
6.809506e-05
1.249789e-04
2.577638e-04
5.862436e-04
1.407705e-03
3.305707e-03
6.789247e-03
1.066911e-02
1.148203e-02
8.265623e-03
4.314100e-03
1.862598e-03
7.543750e-04
3.152288e-04
1.444275e-04
7.481669e-05
4.420278e-05
2.967968e-05
2.955199e-05
2.475054e-05
2.318276e-05
2.421460e-05
2.822057e-05
3.686155e-05
5.442918e-05
9.186691e-05
1.794536e-04
4.088698e-04
1.078015e-03
3.173199e-03
9.622738e-03
2.603441e-02
5.045690e-02
5.583947e-02
3.370445e-02
1.334653e-02
4.395931e-03
1.431208e-03
5.111623e-04
2.113148e-04
1.029034e-04
5.874731e-05
3.875861e-05
2.911101e-05
2.459855e-05
2.320577e-05
2.437534e-05
2.852418e-05
3.735106e-05
5.521321e-05
9.315759e-05
1.816903e-04
4.128164e-04
1.084824e-03
3.185214e-03
9.664598e-03
2.632949e-02
5.183350e-02
5.859002e-02
3.599912e-02
1.439406e-02
4.754195e-03
1.544194e-03
5.479566e-04
2.243630e-04
1.080172e-04
6.093869e-05
3.975063e-05
3.545368e-05
2.951706e-05
2.753103e-05
2.865843e-05
3.334565e-05
4.363830e-05
6.497065e-05
1.119609e-04
2.279383e-04
5.590270e-04
1.663796e-03
5.899111e-03
2.341783e-02
9.016934e-02
2.442465e-01
2.902976e-01
1.353793e-01
3.740887e-02
9.156887e-03
2.413901e-03
7.488642e-04
2.832816e-04
1.308383e-04
7.246994e-05
4.700560e-05
3.494771e-05
2.933107e-05
2.753451e-05
2.880860e-05
3.364327e-05
4.412544e-05
6.576939e-05
1.132992e-04
2.303132e-04
5.631716e-04
1.669270e-03
5.892783e-03
2.333678e-02
9.025885e-02
2.490220e-01
3.050002e-01
1.455946e-01
4.056251e-02
9.930253e-03
2.606517e-03
8.022490e-04
3.002921e-04
1.370655e-04
7.502995e-05
4.813925e-05
3.986973e-05
3.320493e-05
3.092969e-05
3.209166e-05
3.715342e-05
4.835548e-05
7.171815e-05
1.238268e-04
2.557943e-04
6.509956e-04
2.084915e-03
8.400892e-03
4.122805e-02
2.221826e-01
8.263447e-01
9.735475e-01
3.938591e-01
7.530776e-02
1.433708e-02
3.241690e-03
9.183264e-04
3.305537e-04
1.491079e-04
8.185072e-05
5.297496e-05
3.938391e-05
3.303742e-05
3.095123e-05
3.225552e-05
3.745960e-05
4.884629e-05
7.249769e-05
1.251023e-04
2.579651e-04
6.543336e-04
2.085008e-03
8.346486e-03
4.068691e-02
2.187405e-01
8.259976e-01
9.865713e-01
4.219308e-01
8.148526e-02
1.549890e-02
3.487606e-03
9.798791e-04
3.489361e-04
1.555665e-04
8.443445e-05
5.409475e-05
4.278258e-05
3.583710e-05
3.342003e-05
3.456015e-05
3.969725e-05
5.104641e-05
7.455294e-05
1.265259e-04
2.573731e-04
6.501523e-04
2.098746e-03
8.732497e-03
4.588026e-02
2.802903e-01
9.998008e-01
5.404993e-01
5.373735e-01
8.961439e-02
1.564115e-02
3.382736e-03
9.419513e-04
3.393386e-04
1.547047e-04
8.608814e-05
5.640777e-05
4.231499e-05
3.567037e-05
3.342802e-05
3.470422e-05
3.997173e-05
5.147659e-05
7.522827e-05
1.275718e-04
2.589967e-04
6.518260e-04
2.091979e-03
8.632503e-03
4.486798e-02
2.711617e-01
9.991887e-01
5.064524e-01
5.630908e-01
9.565455e-02
1.674374e-02
3.611456e-03
9.985778e-04
3.562245e-04
1.606661e-04
8.849503e-05
5.746445e-05
4.424488e-05
3.741941e-05
3.500651e-05
3.607676e-05
4.103829e-05
5.191022e-05
7.397603e-05
1.214907e-04
2.369175e-04
5.685743e-04
1.728784e-03
6.683471e-03
3.160666e-02
1.625724e-01
6.075407e-01
7.742803e-01
2.955170e-01
5.976014e-02
1.184079e-02
2.778199e-03
8.237031e-04
3.127425e-04
1.488957e-04
8.568589e-05
5.752318e-05
4.384781e-05
3.728632e-05
3.502851e-05
3.622090e-05
4.129553e-05
5.229303e-05
7.455689e-05
1.222941e-04
2.379733e-04
5.688320e-04
1.718615e-03
6.583638e-03
3.074711e-02
1.558889e-01
5.820140e-01
7.620251e-01
3.016187e-01
6.246247e-02
1.249270e-02
2.934103e-03
8.656729e-04
3.259972e-04
1.537682e-04
8.770836e-05
5.842349e-05
4.447239e-05
3.807630e-05
3.576472e-05
3.674503e-05
4.135422e-05
5.129707e-05
7.097695e-05
1.115507e-04
2.045489e-04
4.510045e-04
1.223258e-03
4.049373e-03
1.533091e-02
5.682641e-02
1.503822e-01
1.823648e-01
8.989632e-02
2.629212e-02
6.764187e-03
1.894590e-03
6.379099e-04
2.660372e-04
1.355728e-04
8.182908e-05
5.672580e-05
4.413304e-05
3.795219e-05
3.578016e-05
3.686554e-05
4.156495e-05
5.161534e-05
7.141258e-05
1.121296e-04
2.050972e-04
4.504255e-04
1.213967e-03
3.982521e-03
1.490190e-02
5.454939e-02
1.436982e-01
1.770845e-01
8.993832e-02
2.695541e-02
7.029443e-03
1.977250e-03
6.641980e-04
2.753072e-04
1.392624e-04
8.344887e-05
5.747954e-05
4.371483e-05
3.792528e-05
3.580075e-05
3.666939e-05
4.081914e-05
4.962586e-05
6.646992e-05
9.953175e-05
1.698559e-04
3.377750e-04
7.927837e-04
2.155130e-03
6.281030e-03
1.682288e-02
3.294051e-02
3.747252e-02
2.343878e-02
9.616471e-03
3.311438e-03
1.157799e-03
4.592300e-04
2.154018e-04
1.190990e-04
7.595751e-05
5.458870e-05
4.343128e-05
3.782276e-05
3.581130e-05
3.676695e-05
4.099483e-05
4.987532e-05
6.679962e-05
9.990900e-05
1.701171e-04
3.369402e-04
7.862292e-04
2.120084e-03
6.118020e-03
1.623453e-02
3.169057e-02
3.639722e-02
2.322620e-02
9.726475e-03
3.396470e-03
1.194832e-03
4.737956e-04
2.213543e-04
1.217172e-04
7.718874e-05
5.518883e-05
4.225610e-05
3.715356e-05
3.524189e-05
3.601035e-05
3.966125e-05
4.725545e-05
6.131018e-05
8.739488e-05
1.386170e-04
2.476515e-04
4.996642e-04
1.109707e-03
2.518397e-03
5.147709e-03
8.154984e-03
8.896862e-03
6.513086e-03
3.473278e-03
1.560418e-03
6.825668e-04
3.214074e-04
1.705692e-04
1.026477e-04
6.925738e-05
5.163933e-05
4.204184e-05
3.707837e-05
3.526235e-05
3.609953e-05
3.981052e-05
4.745899e-05
6.155848e-05
8.765661e-05
1.387073e-04
2.469308e-04
4.956283e-04
1.093267e-03
2.461886e-03
4.998222e-03
7.900665e-03
8.669178e-03
6.430886e-03
3.483233e-03
1.584418e-03
6.976067e-04
3.288962e-04
1.741580e-04
1.044092e-04
7.014870e-05
5.208927e-05
4.037753e-05
3.596168e-05
3.428179e-05
3.494100e-05
3.810562e-05
4.455701e-05
5.605679e-05
7.628934e-05
1.129193e-04
1.824193e-04
3.197839e-04
5.911528e-04
1.082037e-03
1.788689e-03
2.437462e-03
2.583969e-03
2.105466e-03
1.366954e-03
7.662264e-04
4.093845e-04
2.260209e-04
1.347067e-04
8.783563e-05
6.253150e-05
4.828758e-05
4.019596e-05
3.589060e-05
3.428310e-05
3.500011e-05
3.820846e-05
4.470075e-05
5.622798e-05
7.643400e-05
1.129131e-04
1.818488e-04
3.174234e-04
5.836367e-04
1.062012e-03
1.747071e-03
2.376715e-03
2.528022e-03
2.077668e-03
1.364213e-03
7.724069e-04
4.152990e-04
2.297802e-04
1.368384e-04
8.901783e-05
6.318514e-05
4.864673e-05
3.826245e-05
3.449582e-05
3.303681e-05
3.360081e-05
3.630970e-05
4.172772e-05
5.106446e-05
6.661694e-05
9.267083e-05
1.370146e-04
2.127258e-04
3.371704e-04
5.192337e-04
7.305846e-04
8.937116e-04
9.283853e-04
8.151191e-04
6.117842e-04
4.080806e-04
2.573286e-04
1.628034e-04
1.074307e-04
7.526438e-05
5.627131e-05
4.488382e-05
3.812686e-05
3.444230e-05
3.304294e-05
3.364954e-05
3.639905e-05
4.184231e-05
5.118352e-05
6.670813e-05
9.263297e-05
1.366124e-04
2.113840e-04
3.336473e-04
5.116000e-04
7.173734e-04
8.763212e-04
9.119461e-04
8.049664e-04
6.088769e-04
4.093102e-04
2.595263e-04
1.646289e-04
1.086592e-04
7.602019e-05
5.672154e-05
4.513987e-05
3.607652e-05
3.287829e-05
3.162214e-05
3.210822e-05
3.441368e-05
3.893586e-05
4.647885e-05
5.841915e-05
7.700276e-05
1.055813e-04
1.482961e-04
2.078325e-04
2.801178e-04
3.499008e-04
3.964133e-04
4.058934e-04
3.754122e-04
3.129725e-04
2.381667e-04
1.711679e-04
1.210539e-04
8.703908e-05
6.487923e-05
5.063668e-05
4.157768e-05
3.598349e-05
3.284362e-05
3.163258e-05
3.215747e-05
3.448453e-05
3.902381e-05
4.657110e-05
5.847675e-05
7.696487e-05
1.053052e-04
1.475078e-04
2.061109e-04
2.769634e-04
3.451142e-04
3.905152e-04
4.001036e-04
3.712007e-04
3.110638e-04
2.380661e-04
1.718978e-04
1.218926e-04
8.771249e-05
6.535309e-05
5.093750e-05
4.175612e-05
3.386975e-05
3.117213e-05
3.009978e-05
3.050621e-05
3.246458e-05
3.623629e-05
4.231233e-05
5.148921e-05
6.483167e-05
8.349515e-05
1.081406e-04
1.376425e-04
1.678001e-04
1.921806e-04
2.061600e-04
2.089410e-04
2.004053e-04
1.801706e-04
1.512063e-04
1.201867e-04
9.290926e-05
7.168520e-05
5.630482e-05
4.561002e-05
3.840452e-05
3.378365e-05
3.113386e-05
3.009489e-05
3.052340e-05
3.250692e-05
3.629016e-05
4.235846e-05
5.151299e-05
6.477429e-05
8.328624e-05
1.076735e-04
1.367555e-04
1.663777e-04
1.902392e-04
2.038686e-04
2.066105e-04
1.984481e-04
1.789780e-04
1.508446e-04
1.203497e-04
9.328817e-05
7.206922e-05
5.660752e-05
4.583073e-05
3.855098e-05
3.153663e-05
2.927042e-05
2.835541e-05
2.870810e-05
3.035672e-05
3.347696e-05
3.837472e-05
4.544019e-05
5.504270e-05
6.734241e-05
8.177453e-05
9.662729e-05
1.092235e-04
1.174157e-04
1.211825e-04
1.219262e-04
1.199712e-04
1.138617e-04
1.027730e-04
8.824067e-05
7.315977e-05
5.977549e-05
4.904035e-05
4.099165e-05
3.528216e-05
3.147931e-05
2.924194e-05
2.835386e-05
2.873231e-05
3.039149e-05
3.351598e-05
3.841464e-05
4.544182e-05
5.500254e-05
6.720764e-05
8.148491e-05
9.615522e-05
1.085550e-04
1.165677e-04
1.201881e-04
1.208462e-04
1.189572e-04
1.130956e-04
1.023503e-04
8.816657e-05
7.326997e-05
5.995684e-05
4.921906e-05
4.112699e-05
3.537466e-05
2.877407e-05
2.690181e-05
2.613696e-05
2.642786e-05
2.780323e-05
3.035884e-05
3.425796e-05
3.962986e-05
4.654334e-05
5.463981e-05
6.303820e-05
7.033474e-05
7.514812e-05
7.713519e-05
7.739983e-05
7.746181e-05
7.764076e-05
7.666370e-05
7.300630e-05
6.648886e-05
5.822337e-05
4.980638e-05
4.233625e-05
3.631960e-05
3.183158e-05
2.874769e-05
2.689821e-05
2.615214e-05
2.645187e-05
2.783749e-05
3.040254e-05
3.428446e-05
3.965193e-05
4.650687e-05
5.454671e-05
6.287643e-05
7.008606e-05
7.482485e-05
7.674421e-05
7.693883e-05
7.692902e-05
7.705546e-05
7.612299e-05
7.264616e-05
6.629601e-05
5.819688e-05
4.985289e-05
4.240915e-05
3.639275e-05
3.188349e-05
2.505622e-05
2.356210e-05
2.295355e-05
2.318416e-05
2.427986e-05
2.630171e-05
2.928598e-05
3.329258e-05
3.809868e-05
4.328731e-05
4.803550e-05
5.131379e-05
5.255150e-05
5.213089e-05
5.127224e-05
5.113014e-05
5.190007e-05
5.273198e-05
5.228828e-05
4.974348e-05
4.545075e-05
4.027306e-05
3.520623e-05
3.085032e-05
2.743897e-05
2.502018e-05
2.354050e-05
2.294184e-05
2.318853e-05
2.429658e-05
2.630765e-05
2.929544e-05
3.327359e-05
3.807185e-05
4.321422e-05
4.792570e-05
5.118202e-05
5.239609e-05
5.195912e-05
5.106793e-05
5.085840e-05
5.157049e-05
5.240083e-05
5.199344e-05
4.957482e-05
4.537807e-05
4.029373e-05
3.525572e-05
3.090166e-05
2.748684e-05
1.976842e-05
1.867929e-05
1.821923e-05
1.839898e-05
1.920748e-05
2.065998e-05
2.279678e-05
2.551658e-05
2.866990e-05
3.179427e-05
3.423162e-05
3.541743e-05
3.518034e-05
3.406327e-05
3.301641e-05
3.281713e-05
3.364800e-05
3.489440e-05
3.559428e-05
3.500980e-05
3.297175e-05
3.003616e-05
2.682576e-05
2.386808e-05
2.147926e-05
1.974134e-05
1.866008e-05
1.821320e-05
1.839725e-05
1.919890e-05
2.066697e-05
2.279930e-05
2.550350e-05
2.863178e-05
3.175398e-05
3.416836e-05
3.534491e-05
3.511999e-05
3.399871e-05
3.292294e-05
3.268490e-05
3.347036e-05
3.467097e-05
3.539113e-05
3.486723e-05
3.290413e-05
3.000924e-05
2.684795e-05
2.390654e-05
2.151314e-05
1.296850e-05
1.229678e-05
1.201950e-05
1.212424e-05
1.262322e-05
1.352104e-05
1.480895e-05
1.641737e-05
1.818325e-05
1.980170e-05
2.089658e-05
2.113201e-05
2.054145e-05
1.954868e-05
1.876558e-05
1.863376e-05
1.921121e-05
2.021712e-05
2.105191e-05
2.118196e-05
2.041043e-05
1.894177e-05
1.717865e-05
1.548275e-05
1.404829e-05
1.297870e-05
1.231097e-05
1.203592e-05
1.214105e-05
1.265575e-05
1.354387e-05
1.480877e-05
1.643948e-05
1.818399e-05
1.977916e-05
2.088093e-05
2.111267e-05
2.051660e-05
1.952307e-05
1.872960e-05
1.856937e-05
1.909619e-05
2.007723e-05
2.091931e-05
2.103830e-05
2.032515e-05
1.890314e-05
1.714918e-05
1.546858e-05
1.403889e-05
6.182720e-06
5.871344e-06
5.746743e-06
5.792673e-06
6.020403e-06
6.439911e-06
6.990868e-06
7.712662e-06
8.454718e-06
9.103528e-06
9.463707e-06
9.422461e-06
9.030655e-06
8.502950e-06
8.102967e-06
8.029865e-06
8.321490e-06
8.835887e-06
9.335871e-06
9.514084e-06
9.328235e-06
8.762708e-06
8.036301e-06
7.295432e-06
6.653093e-06
6.181000e-06
5.871913e-06
5.745335e-06
5.801233e-06
6.017206e-06
6.433502e-06
7.018511e-06
7.688626e-06
8.453456e-06
9.099669e-06
9.445367e-06
9.415866e-06
9.026678e-06
8.497319e-06
8.095533e-06
8.000997e-06
8.285216e-06
8.787196e-06
9.251106e-06
9.490866e-06
9.281402e-06
8.737994e-06
8.036398e-06
7.293891e-06
6.657783e-06
1.647514e-06
1.572190e-06
1.534049e-06
1.551875e-06
1.608629e-06
1.698671e-06
1.869946e-06
2.025567e-06
2.216682e-06
2.357801e-06
2.432378e-06
2.404519e-06
2.275292e-06
2.120867e-06
2.019400e-06
1.996902e-06
2.069208e-06
2.213957e-06
2.341446e-06
2.441967e-06
2.383470e-06
2.268635e-06
2.090794e-06
1.906678e-06
1.752134e-06
1.621865e-06
1.545627e-06
1.514341e-06
1.525325e-06
1.593916e-06
1.691022e-06
1.825445e-06
2.029083e-06