# vtk DataFile Version 3.0
Tensor
ASCII
DATASET UNSTRUCTURED_GRID
POINTS 1650 float
0.000087556026434 0.000000000000000 0.000000000000000
0.000086865621014 0.000010973679911 0.000000000000000
0.000084805292859 0.000021774298334 0.000000000000000
0.000081407534576 0.000032231523066 0.000000000000000
0.000076725930842 0.000042180437424 0.000000000000000
0.000070834313345 0.000051464141087 0.000000000000000
0.000063825596412 0.000059936224502 0.000000000000000
0.000055810311696 0.000067463077852 0.000000000000000
0.000046914865025 0.000073925998164 0.000000000000000
0.000037279542907 0.000079223061324 0.000000000000000
0.000027056300128 0.000083270729481 0.000000000000000
0.000016406363333 0.000086005168491 0.000000000000000
0.000005497688388 0.000087383254616 0.000000000000000
-0.000005497688388 0.000087383254616 0.000000000000000
-0.000016406363333 0.000086005168491 0.000000000000000
-0.000027056300128 0.000083270729481 0.000000000000000
-0.000037279542907 0.000079223061324 0.000000000000000
-0.000046914865025 0.000073925998164 0.000000000000000
-0.000055810311696 0.000067463077852 0.000000000000000
-0.000063825596412 0.000059936224502 0.000000000000000
-0.000070834313345 0.000051464141087 0.000000000000000
-0.000076725930842 0.000042180437424 0.000000000000000
-0.000081407534576 0.000032231523066 0.000000000000000
-0.000084805292859 0.000021774298334 0.000000000000000
-0.000086865621014 0.000010973679911 0.000000000000000
-0.000087556026434 0.000000000000000 0.000000000000000
-0.000086865621014 -0.000010973679911 0.000000000000000
-0.000084805292859 -0.000021774298334 0.000000000000000
-0.000081407534576 -0.000032231523066 0.000000000000000
-0.000076725930842 -0.000042180437424 0.000000000000000
-0.000070834313345 -0.000051464141087 0.000000000000000
-0.000063825596412 -0.000059936224502 0.000000000000000
-0.000055810311696 -0.000067463077852 0.000000000000000
-0.000046914865025 -0.000073925998164 0.000000000000000
-0.000037279542907 -0.000079223061324 0.000000000000000
-0.000027056300128 -0.000083270729481 0.000000000000000
-0.000016406363333 -0.000086005168491 0.000000000000000
-0.000005497688388 -0.000087383254616 0.000000000000000
0.000005497688388 -0.000087383254616 0.000000000000000
0.000016406363333 -0.000086005168491 0.000000000000000
0.000027056300128 -0.000083270729481 0.000000000000000
0.000037279542907 -0.000079223061324 0.000000000000000
0.000046914865025 -0.000073925998164 0.000000000000000
0.000055810311696 -0.000067463077852 0.000000000000000
0.000063825596412 -0.000059936224502 0.000000000000000
0.000070834313345 -0.000051464141087 0.000000000000000
0.000076725930842 -0.000042180437424 0.000000000000000
0.000081407534576 -0.000032231523066 0.000000000000000
0.000084805292859 -0.000021774298334 0.000000000000000
0.000086865621014 -0.000010973679911 0.000000000000000
0.003371443549894 0.000000000000000 0.000000000000000
0.003344858710501 0.000422553921888 0.000000000000000
0.003265523451123 0.000838443916006 0.000000000000000
0.003134688936191 0.001241111148706 0.000000000000000
0.002954418504162 0.001624205317188 0.000000000000000
0.002727555127440 0.001981684797564 0.000000000000000
0.002457676576995 0.002307911924882 0.000000000000000
0.002149038998786 0.002597741902464 0.000000000000000
0.001806509791792 0.002846603938429 0.000000000000000
0.001435490846225 0.003050573329806 0.000000000000000
0.001041833352493 0.003206433357448 0.000000000000000
0.000631745524431 0.003311726015612 0.000000000000000
0.000211694692062 0.003364790776181 0.000000000000000
-0.000211694692062 0.003364790776181 0.000000000000000
-0.000631745524431 0.003311726015612 0.000000000000000
-0.001041833352493 0.003206433357448 0.000000000000000
-0.001435490846225 0.003050573329806 0.000000000000000
-0.001806509791792 0.002846603938429 0.000000000000000
-0.002149038998786 0.002597741902464 0.000000000000000
-0.002457676576995 0.002307911924882 0.000000000000000
-0.002727555127440 0.001981684797564 0.000000000000000
-0.002954418504162 0.001624205317188 0.000000000000000
-0.003134688936191 0.001241111148706 0.000000000000000
-0.003265523451123 0.000838443916006 0.000000000000000
-0.003344858710501 0.000422553921888 0.000000000000000
-0.003371443549894 0.000000000000000 0.000000000000000
-0.003344858710501 -0.000422553921888 0.000000000000000
-0.003265523451123 -0.000838443916006 0.000000000000000
-0.003134688936191 -0.001241111148706 0.000000000000000
-0.002954418504162 -0.001624205317188 0.000000000000000
-0.002727555127440 -0.001981684797564 0.000000000000000
-0.002457676576995 -0.002307911924882 0.000000000000000
-0.002149038998786 -0.002597741902464 0.000000000000000
-0.001806509791792 -0.002846603938429 0.000000000000000
-0.001435490846225 -0.003050573329806 0.000000000000000
-0.001041833352493 -0.003206433357448 0.000000000000000
-0.000631745524431 -0.003311726015612 0.000000000000000
-0.000211694692062 -0.003364790776181 0.000000000000000
0.000211694692062 -0.003364790776181 0.000000000000000
0.000631745524431 -0.003311726015612 0.000000000000000
0.001041833352493 -0.003206433357448 0.000000000000000
0.001435490846225 -0.003050573329806 0.000000000000000
0.001806509791792 -0.002846603938429 0.000000000000000
0.002149038998786 -0.002597741902464 0.000000000000000
0.002457676576995 -0.002307911924882 0.000000000000000
0.002727555127440 -0.001981684797564 0.000000000000000
0.002954418504162 -0.001624205317188 0.000000000000000
0.003134688936191 -0.001241111148706 0.000000000000000
0.003265523451123 -0.000838443916006 0.000000000000000
0.003344858710501 -0.000422553921888 0.000000000000000
0.011400754268046 0.000000000000000 0.000000000000000
0.011310855915403 0.001428893397486 0.000000000000000
0.011042578608195 0.002835252292515 0.000000000000000
0.010600153239820 0.004196897565192 0.000000000000000
0.009990557122628 0.005492355256162 0.000000000000000
0.009223403951542 0.006701195223768 0.000000000000000
0.008310792190347 0.007804353339595 0.000000000000000
0.007267114271682 0.008784432141162 0.000000000000000
0.006108829619790 0.009625975200298 0.000000000000000
0.004854205075556 0.010315710880246 0.000000000000000
0.003523026817519 0.010842761637305 0.000000000000000
0.002136288322015 0.011198815566193 0.000000000000000
0.000715859283517 0.011378257483753 0.000000000000000
-0.000715859283517 0.011378257483753 0.000000000000000
-0.002136288322015 0.011198815566193 0.000000000000000
-0.003523026817519 0.010842761637305 0.000000000000000
-0.004854205075556 0.010315710880246 0.000000000000000
-0.006108829619790 0.009625975200298 0.000000000000000
-0.007267114271682 0.008784432141162 0.000000000000000
-0.008310792190347 0.007804353339595 0.000000000000000
-0.009223403951542 0.006701195223768 0.000000000000000
-0.009990557122628 0.005492355256162 0.000000000000000
-0.010600153239820 0.004196897565192 0.000000000000000
-0.011042578608195 0.002835252292515 0.000000000000000
-0.011310855915403 0.001428893397486 0.000000000000000
-0.011400754268046 0.000000000000000 0.000000000000000
-0.011310855915403 -0.001428893397486 0.000000000000000
-0.011042578608195 -0.002835252292515 0.000000000000000
-0.010600153239820 -0.004196897565192 0.000000000000000
-0.009990557122628 -0.005492355256162 0.000000000000000
-0.009223403951542 -0.006701195223768 0.000000000000000
-0.008310792190347 -0.007804353339595 0.000000000000000
-0.007267114271682 -0.008784432141162 0.000000000000000
-0.006108829619790 -0.009625975200298 0.000000000000000
-0.004854205075556 -0.010315710880246 0.000000000000000
-0.003523026817519 -0.010842761637305 0.000000000000000
-0.002136288322015 -0.011198815566193 0.000000000000000
-0.000715859283517 -0.011378257483753 0.000000000000000
0.000715859283517 -0.011378257483753 0.000000000000000
0.002136288322015 -0.011198815566193 0.000000000000000
0.003523026817519 -0.010842761637305 0.000000000000000
0.004854205075556 -0.010315710880246 0.000000000000000
0.006108829619790 -0.009625975200298 0.000000000000000
0.007267114271682 -0.008784432141162 0.000000000000000
0.008310792190347 -0.007804353339595 0.000000000000000
0.009223403951542 -0.006701195223768 0.000000000000000
0.009990557122628 -0.005492355256162 0.000000000000000
0.010600153239820 -0.004196897565192 0.000000000000000
0.011042578608195 -0.002835252292515 0.000000000000000
0.011310855915403 -0.001428893397486 0.000000000000000
0.024099019329368 0.000000000000000 0.000000000000000
0.023908991363928 0.003020408018278 0.000000000000000
0.023341904322139 0.005993182397804 0.000000000000000
0.022406701505413 0.008871440710763 0.000000000000000
0.021118131620831 0.011609791104171 0.000000000000000
0.019496516185229 0.014165048156514 0.000000000000000
0.017567429042731 0.016496913937638 0.000000000000000
0.015361293049956 0.018568613531188 0.000000000000000
0.012912900289392 0.020347474996998 0.000000000000000
0.010260863377471 0.021805444627114 0.000000000000000
0.007447006520545 0.022919529369518 0.000000000000000
0.004515705922164 0.023672159442302 0.000000000000000
0.001513189943838 0.024051465419619 0.000000000000000
-0.001513189943838 0.024051465419619 0.000000000000000
-0.004515705922164 0.023672159442302 0.000000000000000
-0.007447006520545 0.022919529369518 0.000000000000000
-0.010260863377471 0.021805444627114 0.000000000000000
-0.012912900289392 0.020347474996998 0.000000000000000
-0.015361293049956 0.018568613531188 0.000000000000000
-0.017567429042731 0.016496913937638 0.000000000000000
-0.019496516185229 0.014165048156514 0.000000000000000
-0.021118131620831 0.011609791104171 0.000000000000000
-0.022406701505413 0.008871440710763 0.000000000000000
-0.023341904322139 0.005993182397804 0.000000000000000
-0.023908991363928 0.003020408018278 0.000000000000000
-0.024099019329368 0.000000000000000 0.000000000000000
-0.023908991363928 -0.003020408018278 0.000000000000000
-0.023341904322139 -0.005993182397804 0.000000000000000
-0.022406701505413 -0.008871440710763 0.000000000000000
-0.021118131620831 -0.011609791104171 0.000000000000000
[...]
POINT_DATA 1650

SCALARS beta float 1
LOOKUP_TABLE default
3.931935e-03
3.931935e-03
3.931935e-03
3.931935e-03
3.931935e-03
3.931935e-03
3.931935e-03
3.931935e-03
3.931935e-03
3.931935e-03
3.931935e-03
3.931934e-03
3.931934e-03
3.931934e-03
3.931934e-03
3.931934e-03
3.931934e-03
3.931934e-03
3.931934e-03
3.931933e-03
3.931933e-03
3.931933e-03
3.931933e-03
3.931933e-03
3.931932e-03
3.931932e-03
3.931932e-03
3.931932e-03
3.931931e-03
3.931931e-03
3.931931e-03
3.931930e-03
3.931930e-03
3.931930e-03
3.931930e-03
3.931930e-03
3.931930e-03
3.931930e-03
3.931930e-03
3.931931e-03
3.931931e-03
3.931931e-03
3.931932e-03
3.931932e-03
3.931933e-03
3.931933e-03
3.931934e-03
3.931934e-03
3.931935e-03
3.931935e-03
3.928310e-03
3.928213e-03
3.928049e-03
3.927828e-03
3.927566e-03
3.927277e-03
3.926982e-03
3.926698e-03
3.926443e-03
3.926233e-03
3.926082e-03
3.925999e-03
3.925988e-03
3.926051e-03
3.926183e-03
3.926375e-03
3.926615e-03
3.926887e-03
3.927174e-03
3.927457e-03
3.927717e-03
3.927938e-03
3.928106e-03
3.928208e-03
3.928239e-03
3.928195e-03
3.928080e-03
3.927900e-03
3.927665e-03
3.927391e-03
3.927094e-03
3.926793e-03
3.926506e-03
3.926252e-03
3.926045e-03
3.925900e-03
3.925826e-03
3.925828e-03
3.925905e-03
3.926053e-03
3.926264e-03
3.926525e-03
3.926819e-03
3.927129e-03
3.927435e-03
3.927719e-03
3.927965e-03
3.928155e-03
3.928281e-03
3.928333e-03
3.890257e-03
3.889089e-03
3.887175e-03
3.884636e-03
3.881627e-03
3.878335e-03
3.874960e-03
3.871712e-03
3.868791e-03
3.866381e-03
3.864636e-03
3.863671e-03
3.863550e-03
3.864286e-03
3.865835e-03
3.868098e-03
3.870930e-03
3.874148e-03
3.877541e-03
3.880889e-03
3.883977e-03
3.886608e-03
3.888615e-03
3.889875e-03
3.890311e-03
3.889902e-03
3.888674e-03
3.886706e-03
3.884120e-03
3.881074e-03
3.877753e-03
3.874360e-03
3.871103e-03
3.868184e-03
3.865787e-03
3.864065e-03
3.863131e-03
3.863049e-03
3.863832e-03
3.865434e-03
3.867756e-03
3.870651e-03
3.873935e-03
3.877398e-03
3.880818e-03
3.883979e-03
3.886683e-03
3.888764e-03
3.890095e-03
3.890601e-03
3.749562e-03
3.744522e-03
3.736353e-03
3.725555e-03
3.712744e-03
3.698633e-03
3.684006e-03
3.669693e-03
3.656543e-03
3.645380e-03
3.636955e-03
3.631885e-03
3.630598e-03
3.633270e-03
3.639800e-03
3.649790e-03
3.662569e-03
3.677246e-03
3.692789e-03
3.708114e-03
3.722181e-03
3.734079e-03
3.743088e-03
3.748715e-03
3.750705e-03
3.749033e-03
3.743882e-03
3.735609e-03
3.724719e-03
3.711833e-03
3.697667e-03
3.683008e-03
3.668686e-03
3.655549e-03
3.644421e-03
3.636047e-03
3.631045e-03
3.629834e-03
3.632591e-03
3.639209e-03
3.649289e-03
3.662160e-03
3.676930e-03
3.692566e-03
3.707987e-03
3.722153e-03
3.734155e-03
3.743273e-03
3.749012e-03
3.751118e-03
3.424797e-03
3.411546e-03
3.390337e-03
3.362392e-03
3.329014e-03
3.291609e-03
3.251747e-03
3.211240e-03
3.172195e-03
3.136996e-03
3.108186e-03
3.088244e-03
3.079275e-03
3.082665e-03
3.098777e-03
3.126764e-03
3.164568e-03
3.209119e-03
3.256713e-03
3.303497e-03
3.345937e-03
3.381187e-03
3.407300e-03
3.423256e-03
3.428855e-03
3.424528e-03
3.411135e-03
3.389784e-03
3.361709e-03
3.328229e-03
3.290756e-03
3.250864e-03
3.210366e-03
3.171366e-03
3.136242e-03
3.107529e-03
3.087694e-03
3.078832e-03
3.082318e-03
3.098507e-03
3.126551e-03
3.164391e-03
3.208963e-03
3.256570e-03
3.303365e-03
3.345820e-03
3.381100e-03
3.407263e-03
3.423295e-03
3.428996e-03
2.877617e-03
2.852925e-03
2.814011e-03
2.762903e-03
2.701066e-03
2.629645e-03
2.549919e-03
2.463893e-03
2.374872e-03
2.287823e-03
2.209314e-03
2.146940e-03
2.108269e-03
2.099487e-03
2.124047e-03
2.181606e-03
2.267575e-03
2.373526e-03
2.488536e-03
2.601156e-03
2.701429e-03
2.782302e-03
2.840103e-03
2.874160e-03
2.885914e-03
2.877937e-03
2.853108e-03
2.814044e-03
2.762810e-03
2.700898e-03
2.629453e-03
2.549742e-03
2.463756e-03
2.374795e-03
2.287828e-03
2.209424e-03
2.147167e-03
2.108597e-03
2.099877e-03
2.124443e-03
2.181954e-03
2.267839e-03
2.373695e-03
2.488609e-03
2.601132e-03
2.701298e-03
2.782056e-03
2.839754e-03
2.873749e-03
2.885511e-03
2.170241e-03
2.135500e-03
2.081385e-03
2.010476e-03
1.923266e-03
1.818658e-03
1.695133e-03
1.552559e-03
1.394272e-03
1.228611e-03
1.068987e-03
9.319789e-04
8.340480e-04
7.885650e-04
8.044599e-04
8.856270e-04
1.028993e-03
1.221637e-03
1.440678e-03
1.658376e-03
1.850064e-03
2.000075e-03
2.103019e-03
2.161294e-03
2.181358e-03
2.170648e-03
2.135740e-03
2.081457e-03
2.010481e-03
1.923327e-03
1.818846e-03
1.695420e-03
1.552856e-03
1.394503e-03
1.228776e-03
1.069155e-03
9.322221e-04
8.343824e-04
7.889353e-04
8.047754e-04
8.858150e-04
1.029045e-03
1.221626e-03
1.440710e-03
1.658503e-03
1.850228e-03
2.000141e-03
2.102873e-03
2.160933e-03
2.180894e-03
1.447903e-03
1.409550e-03
1.349868e-03
1.271830e-03
1.174585e-03
1.054048e-03
9.050461e-04
7.255718e-04
5.226521e-04
3.173637e-04
1.437503e-04
3.533851e-05
4.239454e-07
7.111456e-06
8.794386e-06
7.359309e-09
3.438672e-05
1.707619e-04
4.121294e-04
7.050614e-04
9.830665e-04
1.202321e-03
1.349174e-03
1.429937e-03
1.458358e-03
1.447998e-03
1.409406e-03
1.349521e-03
1.271469e-03
1.174416e-03
1.054143e-03
9.052842e-04
7.257326e-04
5.226004e-04
3.171596e-04
1.435693e-04
3.527647e-05
4.229993e-07
7.101509e-06
8.794553e-06
6.514755e-09
3.427917e-05
1.705294e-04
4.119642e-04
7.051805e-04
9.834588e-04
1.202752e-03
1.349398e-03
1.429885e-03
1.458170e-03
8.438298e-04
8.101115e-04
7.575035e-04
6.887308e-04
6.019739e-04
4.922143e-04
3.552646e-04
1.971249e-04
5.158722e-05
5.177599e-06
2.121073e-04
8.439707e-04
1.899594e-03
2.954854e-03
3.280298e-03
2.558220e-03
1.324598e-03
3.706771e-04
1.074750e-05
8.718671e-05
3.303431e-04
5.656985e-04
7.294238e-04
8.188784e-04
8.511624e-04
8.439066e-04
8.100578e-04
7.573583e-04
6.885712e-04
6.019044e-04
4.922868e-04
3.553862e-04
1.971709e-04
5.155992e-05
5.201675e-06
2.122947e-04
8.441830e-04
1.899442e-03
2.954300e-03
3.279872e-03
2.558221e-03
1.324859e-03
3.708821e-04
1.076836e-05
8.720297e-05
3.304371e-04
5.657903e-04
7.294576e-04
8.188090e-04
8.510229e-04
4.193862e-04
3.960148e-04
3.593269e-04
3.108197e-04
2.484224e-04
1.697245e-04
7.904573e-05
6.259429e-06
5.459499e-05
5.047226e-04
1.986616e-03
5.554034e-03
1.198703e-02
1.957976e-02
2.297307e-02
1.864265e-02
1.044998e-02
4.068858e-03
1.010765e-03
8.592325e-05
2.482993e-05
1.764811e-04
3.142729e-04
3.933457e-04
4.228018e-04
4.193696e-04
3.960094e-04
3.594586e-04
3.108926e-04
2.484010e-04
1.697394e-04
7.903898e-05
6.245774e-06
5.458781e-05
5.044933e-04
1.986155e-03
5.553652e-03
1.198672e-02
1.957981e-02
2.297435e-02
1.864206e-02
1.044772e-02
4.068387e-03
1.010857e-03
8.588180e-05
2.480727e-05
1.763190e-04
3.142740e-04
3.934269e-04
4.227636e-04
1.695934e-04
1.570807e-04
1.361510e-04
1.080662e-04
7.226631e-05
3.119232e-05
9.091410e-07
4.391254e-05
3.689427e-04
1.609738e-03
5.541144e-03
1.639707e-02
4.090665e-02
7.845650e-02
1.011370e-01
8.033907e-02
4.073812e-02
1.464867e-02
3.971822e-03
7.437694e-04
4.783153e-05
1.618669e-05
9.101257e-05
1.460837e-04
1.692297e-04
1.695122e-04
1.569153e-04
1.362969e-04
1.080479e-04
7.214816e-05
3.124333e-05
9.109643e-07
4.400290e-05
3.688562e-04
1.609610e-03
5.541531e-03
1.639815e-02
4.090930e-02
7.845238e-02
1.011466e-01
8.035200e-02
4.073169e-02
1.465028e-02
3.974434e-03
7.430081e-04
4.775286e-05
1.608281e-05
9.114216e-05
1.462473e-04
1.690057e-04
4.843247e-05
4.367436e-05
3.429217e-05
2.203693e-05
8.353673e-06
5.979217e-12
2.277093e-05
1.681112e-04
7.483868e-04
2.807948e-03
9.857319e-03
3.307153e-02
1.015274e-01
2.464088e-01
3.652211e-01
2.769052e-01
1.167500e-01
3.489295e-02
8.665976e-03
1.820122e-03
2.769784e-04
1.275225e-05
7.560675e-06
3.198836e-05
4.611643e-05
4.834445e-05
4.355292e-05
3.445618e-05
2.199878e-05
8.299331e-06
1.355117e-10
2.279615e-05
1.683609e-04
7.474257e-04
2.809347e-03
9.858195e-03
3.306388e-02
1.015498e-01
2.463735e-01
3.651968e-01
2.769556e-01
1.167214e-01
3.488807e-02
8.673499e-03
1.818442e-03
2.765021e-04
1.294317e-05
7.618317e-06
3.210574e-05
4.584853e-05
5.231040e-06
4.364255e-06
2.247571e-06
2.534843e-07
1.265863e-06
1.482060e-05
7.222415e-05
2.792768e-04
1.003541e-03
3.565629e-03
1.302640e-02
4.932673e-02
1.865469e-01
5.793775e-01
9.249420e-01
7.190244e-01
2.529915e-01
6.141292e-02
1.362552e-02
2.893477e-03
5.621847e-04
8.610846e-05
5.990790e-06
4.590241e-07
3.829497e-06
5.195179e-06
4.365090e-06
2.263758e-06
2.486322e-07
1.269099e-06
1.476960e-05
7.233897e-05
2.795738e-04
1.001960e-03
3.568825e-03
1.302587e-02
4.930354e-02
1.866103e-01
5.793467e-01
9.249400e-01
7.190767e-01
2.529910e-01
6.140732e-02
1.362732e-02
2.894650e-03
5.614153e-04
8.635083e-05
5.976266e-06
4.692773e-07
3.793016e-06
1.164951e-06
1.303057e-06
2.448724e-06
5.787699e-06
1.469483e-05
3.921280e-05
1.111112e-04
3.321413e-04
1.059920e-03
3.628832e-03
1.348072e-02
5.474584e-02
2.370588e-01
8.426753e-01
4.089551e-01
9.999881e-01
3.768904e-01
7.956795e-02
1.645767e-02
3.519231e-03
7.721088e-04
1.705620e-04
3.761234e-05
8.589150e-06
2.387302e-06
1.168147e-06
1.284524e-06
2.479514e-06
5.768720e-06
1.465470e-05
3.935806e-05
1.108225e-04
3.323908e-04
1.059891e-03
3.628643e-03
1.348120e-02
5.474916e-02
2.370623e-01
8.426450e-01
4.089446e-01
9.999875e-01
3.769129e-01
7.958879e-02
1.644634e-02
3.522298e-03
7.718231e-04
1.704230e-04
3.766465e-05
8.601590e-06
2.381214e-06
1.135200e-05
1.097555e-05
1.305352e-05
1.833325e-05
3.014462e-05
5.769086e-05
1.283052e-04
3.275350e-04
9.484979e-04
3.082917e-03
1.119864e-02
4.526760e-02
1.976860e-01
7.442535e-01
7.839690e-01
9.866713e-01
3.497232e-01
7.400488e-02
1.552134e-02
3.468672e-03
8.392495e-04
2.257939e-04
7.125833e-05
2.842359e-05
1.533067e-05
1.135656e-05
1.099668e-05
1.302372e-05
1.834983e-05
3.015010e-05
5.769298e-05
1.282878e-04
3.276698e-04
9.483217e-04
3.083079e-03
1.119707e-02
4.527178e-02
1.976605e-01
7.442849e-01
7.840084e-01
9.866636e-01
3.497402e-01
7.399567e-02
1.552652e-02
3.467503e-03
8.392934e-04
2.259544e-04
7.119332e-05
2.841024e-05
1.534581e-05
2.319170e-05
2.189824e-05
2.381852e-05
2.930444e-05
4.112561e-05
6.690536e-05
1.276480e-04
2.871168e-04
7.530317e-04
2.266149e-03
7.694902e-03
2.875827e-02
1.120321e-01
3.809206e-01
7.260696e-01
5.758330e-01
2.028740e-01
4.993817e-02
1.165142e-02
2.851885e-03
7.696677e-04
2.412546e-04
9.278837e-05
4.579622e-05
2.919328e-05
2.316751e-05
2.190402e-05
2.381393e-05
2.931977e-05
4.111020e-05
6.688023e-05
1.277136e-04
2.870144e-04
7.529431e-04
2.266830e-03
7.693734e-03
2.876090e-02
1.120283e-01
3.809341e-01
7.260689e-01
5.758303e-01
2.028855e-01
4.993528e-02
1.165220e-02
2.851562e-03
7.699460e-04
2.410809e-04
9.284926e-05
4.581623e-05
2.916512e-05
3.204048e-05
3.013039e-05
3.140451e-05
3.628038e-05
4.678385e-05
6.865727e-05
1.172371e-04
2.351331e-04
5.527296e-04
1.499682e-03
4.566294e-03
1.495613e-02
4.858998e-02
1.326790e-01
2.276445e-01
1.909111e-01
8.398678e-02
2.606862e-02
7.222579e-03
2.025874e-03
6.241000e-04
2.252427e-04
1.003907e-04
5.625645e-05
3.893954e-05
3.208992e-05
3.009436e-05
3.143208e-05
3.626239e-05
4.678359e-05
6.870080e-05
1.171734e-04
2.351719e-04
5.528678e-04
1.499233e-03
4.566860e-03
1.495420e-02
4.859480e-02
1.326600e-01
2.276524e-01
1.909138e-01
8.397525e-02
2.607456e-02
7.220995e-03
2.026312e-03
6.239287e-04
2.253714e-04
1.003222e-04
5.625427e-05
3.897649e-05
3.722246e-05
3.487515e-05
3.573776e-05
3.971964e-05
4.850625e-05
6.618882e-05
1.030505e-04
1.863589e-04
3.906488e-04
9.353734e-04
2.482316e-03
6.904416e-03
1.840652e-02
4.060879e-02
6.108789e-02
5.432164e-02
2.949871e-02
1.158525e-02
3.916612e-03
1.300522e-03
4.661770e-04
1.942456e-04
9.802618e-05
6.030720e-05
4.423554e-05
3.720142e-05
3.489219e-05
3.571389e-05
3.974745e-05
4.848156e-05
6.617690e-05
1.031215e-04
1.862476e-04
3.907279e-04
9.356239e-04
2.481148e-03
6.906079e-03
1.840559e-02
4.061087e-02
6.108534e-02
5.431998e-02
2.950080e-02
1.158384e-02
3.917352e-03
1.300094e-03
4.665419e-04
1.940734e-04
9.802385e-05
6.037534e-05
4.418782e-05
3.941637e-05
3.707779e-05
3.745248e-05
4.061182e-05
4.766806e-05
6.159308e-05
8.931822e-05
1.469054e-04
2.748184e-04
5.763954e-04
1.310632e-03
3.064398e-03
6.760827e-03
1.249639e-02
1.699575e-02
1.568771e-02
9.981968e-03
4.817196e-03
1.994258e-03
7.940407e-04
3.352376e-04
1.602758e-04
9.021426e-05
5.992864e-05
4.589411e-05
3.949017e-05
3.707041e-05
3.744990e-05
4.059904e-05
4.768655e-05
6.157534e-05
8.925549e-05
1.470277e-04
2.748472e-04
5.762034e-04
1.310676e-03
3.063900e-03
6.763576e-03
1.249458e-02
1.699430e-02
1.568947e-02
9.981111e-03
4.817475e-03
1.994012e-03
7.944763e-04
3.350234e-04
1.603064e-04
9.016193e-05
5.994978e-05
4.597938e-05
3.974852e-05
3.737060e-05
3.753486e-05
4.002220e-05
4.561224e-05
5.645569e-05
7.694550e-05
1.168029e-04
1.972383e-04
3.636445e-04
7.096555e-04
1.398947e-03
2.598518e-03
4.146995e-03
5.220432e-03
4.939355e-03
3.538492e-03
2.031655e-03
1.015364e-03
4.840442e-04
2.389852e-04
1.303735e-04
8.075359e-05
5.709400e-05
4.546428e-05
3.969802e-05
3.741763e-05
3.754312e-05
4.000480e-05
4.558920e-05
5.644151e-05
7.697753e-05
1.168921e-04
1.973276e-04
3.633849e-04
7.093359e-04
1.399660e-03
2.597324e-03
4.147113e-03
5.221321e-03
4.938397e-03
3.538385e-03
2.031509e-03
1.015770e-03
4.839894e-04
2.390173e-04
1.301900e-04
8.082053e-05
5.713939e-05
4.541200e-05
3.872661e-05
3.668287e-05
3.659619e-05
3.850324e-05
4.298167e-05
5.135732e-05
6.664450e-05
9.469555e-05
1.459149e-04
2.394080e-04
4.066394e-04
6.871544e-04
1.095053e-03
1.548514e-03
1.832807e-03
1.762296e-03
1.385698e-03
9.191572e-04
5.424606e-04
3.043550e-04
1.736562e-04
1.058678e-04
7.131771e-05
5.325154e-05
4.363156e-05
3.875109e-05
3.662855e-05
3.659201e-05
3.852191e-05
4.294792e-05
5.134246e-05
6.675125e-05
9.468438e-05
1.458300e-04
2.396048e-04
4.068002e-04
6.864280e-04
1.095079e-03
1.548338e-03
1.832808e-03
1.763355e-03
1.385761e-03
9.193984e-04
5.425269e-04
3.042670e-04
1.734456e-04
1.059746e-04
7.127313e-05
5.322830e-05
4.367853e-05
3.716916e-05
3.529342e-05
3.514579e-05
3.660519e-05
4.006693e-05
4.666457e-05
5.836294e-05
7.813887e-05
1.115431e-04
1.660493e-04
2.501365e-04
3.698388e-04
5.192728e-04
6.641267e-04
7.475925e-04
7.286373e-04
6.155041e-04
4.593530e-04
3.118116e-04
2.010070e-04
1.294378e-04
8.713655e-05
6.276701e-05
4.900246e-05
4.128604e-05
3.712706e-05
3.528540e-05
3.509863e-05
3.655607e-05
4.012890e-05
4.676106e-05
5.826637e-05
7.821305e-05
1.116674e-04
1.659642e-04
2.499426e-04
3.699307e-04
5.190432e-04
6.639709e-04
7.477184e-04
7.285052e-04
6.160640e-04
4.594936e-04
3.116487e-04
2.009934e-04
1.295262e-04
8.699511e-05
6.273224e-05
4.898752e-05
4.129436e-05
3.522182e-05
3.356329e-05
3.336003e-05
3.453895e-05
3.740251e-05
4.260034e-05
5.126659e-05
6.573846e-05
8.811594e-05
1.207845e-04
1.649665e-04
2.190945e-04
2.769758e-04
3.269348e-04
3.541570e-04
3.484883e-04
3.121202e-04
2.552841e-04
1.935451e-04
1.397898e-04
9.960291e-05
7.255768e-05
5.548133e-05
4.495276e-05
3.873508e-05
3.520009e-05
3.356252e-05
3.339434e-05
3.457225e-05
3.736017e-05
4.252550e-05
5.140945e-05
6.568955e-05
8.807394e-05
1.207395e-04
1.649975e-04
2.191494e-04
2.769374e-04
3.270507e-04
3.541177e-04
3.484442e-04
3.117445e-04
2.552531e-04
1.937201e-04
1.397861e-04
9.955608e-05
7.258500e-05
5.549914e-05
4.497290e-05
3.867818e-05
3.306578e-05
3.169129e-05
3.149307e-05
3.241021e-05
3.466653e-05
3.879575e-05
4.574453e-05
5.613765e-05
7.127612e-05
9.137156e-05
1.153221e-04
1.406109e-04
1.639017e-04
1.820221e-04
1.911484e-04
1.895013e-04
1.771574e-04
1.559974e-04
1.292047e-04
1.019781e-04
7.889531e-05
6.130230e-05
4.909986e-05
4.112594e-05
3.603696e-05
3.316223e-05
3.170550e-05
3.146790e-05
3.241339e-05
3.469175e-05
3.882356e-05
4.560567e-05
5.615511e-05
7.122648e-05
9.151911e-05
1.153984e-04
1.404620e-04
1.641451e-04
1.819575e-04
1.910171e-04
1.895901e-04
1.773305e-04
1.558655e-04
1.290535e-04
1.020242e-04
7.890169e-05
6.139071e-05
4.909468e-05
4.110244e-05
3.613186e-05
3.097482e-05
2.967920e-05
2.936795e-05
3.011582e-05
3.202663e-05
3.535583e-05
4.054546e-05
4.835735e-05
5.878373e-05
7.129620e-05
8.440435e-05
9.627137e-05
1.057488e-04
1.117625e-04
1.146694e-04
1.145313e-04
1.106488e-04
1.026502e-04
9.105804e-05
7.739617e-05
6.372255e-05
5.234486e-05
4.356617e-05
3.736514e-05
3.335531e-05
3.084025e-05
2.965093e-05
2.940267e-05
3.009294e-05
3.199669e-05
3.537382e-05
4.063220e-05
4.838928e-05
5.886691e-05
7.112332e-05
8.432780e-05
9.646368e-05
1.054717e-04
1.117768e-04
1.149007e-04
1.144101e-04
1.105625e-04
1.028499e-04
9.117889e-05
7.731886e-05
6.372765e-05
5.220763e-05
4.358637e-05
3.738628e-05
3.326649e-05
2.810869e-05
2.703803e-05
2.694627e-05
2.754463e-05
2.897587e-05
3.168041e-05
3.576628e-05
4.141120e-05
4.848248e-05
5.634493e-05
6.354085e-05
6.887400e-05
7.196211e-05
7.362876e-05
7.441460e-05
7.440368e-05
7.377243e-05
7.145017e-05
6.662686e-05
5.955760e-05
5.178455e-05
4.433084e-05
3.820272e-05
3.350195e-05
3.025867e-05
2.820875e-05
2.709674e-05
2.690234e-05
2.754571e-05
2.904562e-05
3.164161e-05
3.572894e-05
4.130725e-05
4.848411e-05
5.645906e-05
6.355518e-05
6.877785e-05
7.211344e-05
7.364780e-05
7.418430e-05
7.448962e-05
7.381941e-05
7.127518e-05
6.649123e-05
5.962831e-05
5.184537e-05
4.443522e-05
3.817165e-05
3.352374e-05
3.028650e-05
2.451430e-05
2.373134e-05
2.339273e-05
2.387247e-05
2.522602e-05
2.713678e-05
3.016039e-05
3.419369e-05
3.904067e-05
4.360591e-05
4.729995e-05
4.940116e-05
4.986785e-05
4.972479e-05
4.951827e-05
4.982257e-05
5.021580e-05
5.010429e-05
4.852077e-05
4.549388e-05
4.122307e-05
3.641153e-05
3.210472e-05
2.876731e-05
2.610863e-05
2.450002e-05
2.362772e-05
2.343095e-05
2.393163e-05
2.510053e-05
2.716621e-05
3.022040e-05
3.437625e-05
3.886829e-05
4.360074e-05
4.735467e-05
4.927370e-05
4.989190e-05
4.969206e-05
4.964086e-05
4.980604e-05
5.017272e-05
5.018162e-05
4.871210e-05
4.546701e-05
4.103687e-05
3.640983e-05
3.213030e-05
2.866607e-05
2.617000e-05
1.939937e-05
1.858117e-05
1.855346e-05
1.887942e-05
1.956202e-05
2.125053e-05
2.344828e-05
2.605102e-05
2.877433e-05
3.148297e-05
3.304692e-05
3.339094e-05
3.320622e-05
3.243205e-05
3.202330e-05
3.224822e-05
3.289010e-05
3.353363e-05
3.373495e-05
3.248775e-05
3.004857e-05
2.750511e-05
2.469144e-05
2.215266e-05
2.060499e-05
1.937018e-05
1.870336e-05
1.852228e-05
1.877927e-05
1.971477e-05
2.125197e-05
2.328671e-05
2.584479e-05
2.906565e-05
3.142056e-05
3.295494e-05
3.369601e-05
3.311558e-05
3.243195e-05
3.202334e-05
3.222849e-05
3.295425e-05
3.354223e-05
3.350142e-05
3.247794e-05
3.033005e-05
2.740631e-05
2.467994e-05
2.231989e-05
2.050589e-05
1.267933e-05
1.235427e-05
1.211488e-05
1.235769e-05
1.309360e-05
1.380045e-05
1.485411e-05
1.656331e-05
1.823830e-05
1.938071e-05
2.008203e-05
2.008612e-05
1.928432e-05
1.862970e-05
1.838606e-05
1.849013e-05
1.911622e-05
1.973636e-05
1.990788e-05
1.972940e-05
1.898987e-05
1.733470e-05
1.593492e-05
1.472009e-05
1.340538e-05
1.260902e-05
1.228224e-05
1.216770e-05
1.240620e-05
1.297354e-05
1.377184e-05
1.511491e-05
1.668246e-05
1.802215e-05
1.939581e-05
2.017873e-05
1.984045e-05
1.923455e-05
1.872407e-05
1.837273e-05
1.846137e-05
1.902762e-05
1.975579e-05
2.010848e-05
1.970719e-05
1.873662e-05
1.744557e-05
1.594468e-05
1.456025e-05
1.342970e-05
5.924772e-06
5.773010e-06
5.900289e-06
5.952908e-06
6.048136e-06
6.525530e-06
7.313882e-06
7.633064e-06
8.324116e-06
8.882227e-06
9.018086e-06
8.758455e-06
8.367395e-06
8.173522e-06
7.916825e-06
7.985829e-06
8.218074e-06
8.733722e-06
9.005941e-06
8.872405e-06
8.539562e-06
8.231673e-06
7.490902e-06
6.818391e-06
6.417844e-06
6.188944e-06
5.746821e-06
5.793711e-06
6.027159e-06
6.099320e-06
6.562582e-06
7.039996e-06
7.666189e-06
8.315939e-06
8.989404e-06
8.925919e-06
8.734618e-06
8.655611e-06
7.974503e-06
7.826406e-06
8.113967e-06
8.314759e-06
8.590764e-06
8.902652e-06
8.983316e-06
8.655597e-06
8.192287e-06
7.460217e-06
6.897092e-06
6.528891e-06
1.775014e-06
1.596141e-06
1.426775e-06
1.468401e-06
1.623041e-06
1.804151e-06
1.738869e-06
2.156288e-06
2.149431e-06
2.198176e-06
2.092754e-06
2.062040e-06
2.193660e-06
1.873334e-06
1.888041e-06
1.962516e-06
2.030171e-06
2.004671e-06
2.269732e-06
2.423832e-06
2.285234e-06
2.045238e-06
1.901640e-06
1.723761e-06
1.692041e-06
1.487042e-06
1.688968e-06
1.550648e-06
1.372817e-06
1.633653e-06
1.719966e-06
1.892719e-06
2.063257e-06