# vtk DataFile Version 3.0
Tensor
ASCII
DATASET UNSTRUCTURED_GRID
POINTS 1650 float
0.000087556026434 0.000000000000000 0.000000000000000
0.000086865621014 0.000010973679911 0.000000000000000
0.000084805292859 0.000021774298334 0.000000000000000
0.000081407534576 0.000032231523066 0.000000000000000
0.000076725930842 0.000042180437424 0.000000000000000
0.000070834313345 0.000051464141087 0.000000000000000
0.000063825596412 0.000059936224502 0.000000000000000
0.000055810311696 0.000067463077852 0.000000000000000
0.000046914865025 0.000073925998164 0.000000000000000
0.000037279542907 0.000079223061324 0.000000000000000
0.000027056300128 0.000083270729481 0.000000000000000
0.000016406363333 0.000086005168491 0.000000000000000
0.000005497688388 0.000087383254616 0.000000000000000
-0.000005497688388 0.000087383254616 0.000000000000000
-0.000016406363333 0.000086005168491 0.000000000000000
-0.000027056300128 0.000083270729481 0.000000000000000
-0.000037279542907 0.000079223061324 0.000000000000000
-0.000046914865025 0.000073925998164 0.000000000000000
-0.000055810311696 0.000067463077852 0.000000000000000
-0.000063825596412 0.000059936224502 0.000000000000000
-0.000070834313345 0.000051464141087 0.000000000000000
-0.000076725930842 0.000042180437424 0.000000000000000
-0.000081407534576 0.000032231523066 0.000000000000000
-0.000084805292859 0.000021774298334 0.000000000000000
-0.000086865621014 0.000010973679911 0.000000000000000
-0.000087556026434 0.000000000000000 0.000000000000000
-0.000086865621014 -0.000010973679911 0.000000000000000
-0.000084805292859 -0.000021774298334 0.000000000000000
-0.000081407534576 -0.000032231523066 0.000000000000000
-0.000076725930842 -0.000042180437424 0.000000000000000
-0.000070834313345 -0.000051464141087 0.000000000000000
-0.000063825596412 -0.000059936224502 0.000000000000000
-0.000055810311696 -0.000067463077852 0.000000000000000
-0.000046914865025 -0.000073925998164 0.000000000000000
-0.000037279542907 -0.000079223061324 0.000000000000000
-0.000027056300128 -0.000083270729481 0.000000000000000
-0.000016406363333 -0.000086005168491 0.000000000000000
-0.000005497688388 -0.000087383254616 0.000000000000000
0.000005497688388 -0.000087383254616 0.000000000000000
0.000016406363333 -0.000086005168491 0.000000000000000
0.000027056300128 -0.000083270729481 0.000000000000000
0.000037279542907 -0.000079223061324 0.000000000000000
0.000046914865025 -0.000073925998164 0.000000000000000
0.000055810311696 -0.000067463077852 0.000000000000000
0.000063825596412 -0.000059936224502 0.000000000000000
0.000070834313345 -0.000051464141087 0.000000000000000
0.000076725930842 -0.000042180437424 0.000000000000000
0.000081407534576 -0.000032231523066 0.000000000000000
0.000084805292859 -0.000021774298334 0.000000000000000
0.000086865621014 -0.000010973679911 0.000000000000000
0.003371443549894 0.000000000000000 0.000000000000000
0.003344858710501 0.000422553921888 0.000000000000000
0.003265523451123 0.000838443916006 0.000000000000000
0.003134688936191 0.001241111148706 0.000000000000000
0.002954418504162 0.001624205317188 0.000000000000000
0.002727555127440 0.001981684797564 0.000000000000000
0.002457676576995 0.002307911924882 0.000000000000000
0.002149038998786 0.002597741902464 0.000000000000000
0.001806509791792 0.002846603938429 0.000000000000000
0.001435490846225 0.003050573329806 0.000000000000000
0.001041833352493 0.003206433357448 0.000000000000000
0.000631745524431 0.003311726015612 0.000000000000000
0.000211694692062 0.003364790776181 0.000000000000000
-0.000211694692062 0.003364790776181 0.000000000000000
-0.000631745524431 0.003311726015612 0.000000000000000
-0.001041833352493 0.003206433357448 0.000000000000000
-0.001435490846225 0.003050573329806 0.000000000000000
-0.001806509791792 0.002846603938429 0.000000000000000
-0.002149038998786 0.002597741902464 0.000000000000000
-0.002457676576995 0.002307911924882 0.000000000000000
-0.002727555127440 0.001981684797564 0.000000000000000
-0.002954418504162 0.001624205317188 0.000000000000000
-0.003134688936191 0.001241111148706 0.000000000000000
-0.003265523451123 0.000838443916006 0.000000000000000
-0.003344858710501 0.000422553921888 0.000000000000000
-0.003371443549894 0.000000000000000 0.000000000000000
-0.003344858710501 -0.000422553921888 0.000000000000000
-0.003265523451123 -0.000838443916006 0.000000000000000
-0.003134688936191 -0.001241111148706 0.000000000000000
-0.002954418504162 -0.001624205317188 0.000000000000000
-0.002727555127440 -0.001981684797564 0.000000000000000
-0.002457676576995 -0.002307911924882 0.000000000000000
-0.002149038998786 -0.002597741902464 0.000000000000000
-0.001806509791792 -0.002846603938429 0.000000000000000
-0.001435490846225 -0.003050573329806 0.000000000000000
-0.001041833352493 -0.003206433357448 0.000000000000000
-0.000631745524431 -0.003311726015612 0.000000000000000
-0.000211694692062 -0.003364790776181 0.000000000000000
0.000211694692062 -0.003364790776181 0.000000000000000
0.000631745524431 -0.003311726015612 0.000000000000000
0.001041833352493 -0.003206433357448 0.000000000000000
0.001435490846225 -0.003050573329806 0.000000000000000
0.001806509791792 -0.002846603938429 0.000000000000000
0.002149038998786 -0.002597741902464 0.000000000000000
0.002457676576995 -0.002307911924882 0.000000000000000
0.002727555127440 -0.001981684797564 0.000000000000000
0.002954418504162 -0.001624205317188 0.000000000000000
0.003134688936191 -0.001241111148706 0.000000000000000
0.003265523451123 -0.000838443916006 0.000000000000000
0.003344858710501 -0.000422553921888 0.000000000000000
0.011400754268046 0.000000000000000 0.000000000000000
0.011310855915403 0.001428893397486 0.000000000000000
0.011042578608195 0.002835252292515 0.000000000000000
0.010600153239820 0.004196897565192 0.000000000000000
0.009990557122628 0.005492355256162 0.000000000000000
0.009223403951542 0.006701195223768 0.000000000000000
0.008310792190347 0.007804353339595 0.000000000000000
0.007267114271682 0.008784432141162 0.000000000000000
0.006108829619790 0.009625975200298 0.000000000000000
0.004854205075556 0.010315710880246 0.000000000000000
0.003523026817519 0.010842761637305 0.000000000000000
0.002136288322015 0.011198815566193 0.000000000000000
0.000715859283517 0.011378257483753 0.000000000000000
-0.000715859283517 0.011378257483753 0.000000000000000
-0.002136288322015 0.011198815566193 0.000000000000000
-0.003523026817519 0.010842761637305 0.000000000000000
-0.004854205075556 0.010315710880246 0.000000000000000
-0.006108829619790 0.009625975200298 0.000000000000000
-0.007267114271682 0.008784432141162 0.000000000000000
-0.008310792190347 0.007804353339595 0.000000000000000
-0.009223403951542 0.006701195223768 0.000000000000000
-0.009990557122628 0.005492355256162 0.000000000000000
-0.010600153239820 0.004196897565192 0.000000000000000
-0.011042578608195 0.002835252292515 0.000000000000000
-0.011310855915403 0.001428893397486 0.000000000000000
-0.011400754268046 0.000000000000000 0.000000000000000
-0.011310855915403 -0.001428893397486 0.000000000000000
-0.011042578608195 -0.002835252292515 0.000000000000000
-0.010600153239820 -0.004196897565192 0.000000000000000
-0.009990557122628 -0.005492355256162 0.000000000000000
-0.009223403951542 -0.006701195223768 0.000000000000000
-0.008310792190347 -0.007804353339595 0.000000000000000
-0.007267114271682 -0.008784432141162 0.000000000000000
-0.006108829619790 -0.009625975200298 0.000000000000000
-0.004854205075556 -0.010315710880246 0.000000000000000
-0.003523026817519 -0.010842761637305 0.000000000000000
-0.002136288322015 -0.011198815566193 0.000000000000000
-0.000715859283517 -0.011378257483753 0.000000000000000
0.000715859283517 -0.011378257483753 0.000000000000000
0.002136288322015 -0.011198815566193 0.000000000000000
0.003523026817519 -0.010842761637305 0.000000000000000
0.004854205075556 -0.010315710880246 0.000000000000000
0.006108829619790 -0.009625975200298 0.000000000000000
0.007267114271682 -0.008784432141162 0.000000000000000
0.008310792190347 -0.007804353339595 0.000000000000000
0.009223403951542 -0.006701195223768 0.000000000000000
0.009990557122628 -0.005492355256162 0.000000000000000
0.010600153239820 -0.004196897565192 0.000000000000000
0.011042578608195 -0.002835252292515 0.000000000000000
0.011310855915403 -0.001428893397486 0.000000000000000
0.024099019329368 0.000000000000000 0.000000000000000
0.023908991363928 0.003020408018278 0.000000000000000
0.023341904322139 0.005993182397804 0.000000000000000
0.022406701505413 0.008871440710763 0.000000000000000
0.021118131620831 0.011609791104171 0.000000000000000
0.019496516185229 0.014165048156514 0.000000000000000
0.017567429042731 0.016496913937638 0.000000000000000
0.015361293049956 0.018568613531188 0.000000000000000
0.012912900289392 0.020347474996998 0.000000000000000
0.010260863377471 0.021805444627114 0.000000000000000
0.007447006520545 0.022919529369518 0.000000000000000
0.004515705922164 0.023672159442302 0.000000000000000
0.001513189943838 0.024051465419619 0.000000000000000
-0.001513189943838 0.024051465419619 0.000000000000000
-0.004515705922164 0.023672159442302 0.000000000000000
-0.007447006520545 0.022919529369518 0.000000000000000
-0.010260863377471 0.021805444627114 0.000000000000000
-0.012912900289392 0.020347474996998 0.000000000000000
-0.015361293049956 0.018568613531188 0.000000000000000
-0.017567429042731 0.016496913937638 0.000000000000000
-0.019496516185229 0.014165048156514 0.000000000000000
-0.021118131620831 0.011609791104171 0.000000000000000
-0.022406701505413 0.008871440710763 0.000000000000000
-0.023341904322139 0.005993182397804 0.000000000000000
-0.023908991363928 0.003020408018278 0.000000000000000
-0.024099019329368 0.000000000000000 0.000000000000000
-0.023908991363928 -0.003020408018278 0.000000000000000
-0.023341904322139 -0.005993182397804 0.000000000000000
-0.022406701505413 -0.008871440710763 0.000000000000000
-0.021118131620831 -0.011609791104171 0.000000000000000
[...]
POINT_DATA 1650

SCALARS beta float 1
LOOKUP_TABLE default
5.498033e-06
5.498042e-06
5.498050e-06
5.498056e-06
5.498060e-06
5.498063e-06
5.498063e-06
5.498061e-06
5.498058e-06
5.498052e-06
5.498045e-06
5.498035e-06
5.498024e-06
5.498011e-06
5.497997e-06
5.497982e-06
5.497965e-06
5.497948e-06
5.497930e-06
5.497913e-06
5.497895e-06
5.497878e-06
5.497862e-06
5.497847e-06
5.497833e-06
5.497821e-06
5.497811e-06
5.497803e-06
5.497797e-06
5.497793e-06
5.497791e-06
5.497792e-06
5.497795e-06
5.497800e-06
5.497808e-06
5.497817e-06
5.497828e-06
5.497840e-06
5.497854e-06
5.497869e-06
5.497884e-06
5.497901e-06
5.497917e-06
5.497934e-06
5.497950e-06
5.497966e-06
5.497981e-06
5.497996e-06
5.498009e-06
5.498022e-06
5.507568e-06
5.507349e-06
5.507353e-06
5.507594e-06
5.508067e-06
5.508752e-06
5.509607e-06
5.510579e-06
5.511603e-06
5.512607e-06
5.513515e-06
5.514256e-06
5.514764e-06
5.514986e-06
5.514884e-06
5.514439e-06
5.513650e-06
5.512537e-06
5.511141e-06
5.509518e-06
5.507740e-06
5.505889e-06
5.504051e-06
5.502315e-06
5.500763e-06
5.499470e-06
5.498496e-06
5.497884e-06
5.497657e-06
5.497820e-06
5.498355e-06
5.499224e-06
5.500374e-06
5.501737e-06
5.503235e-06
5.504786e-06
5.506308e-06
5.507722e-06
5.508962e-06
5.509974e-06
5.510719e-06
5.511179e-06
5.511355e-06
5.511266e-06
5.510947e-06
5.510451e-06
5.509837e-06
5.509175e-06
5.508534e-06
5.507979e-06
5.574827e-06
5.569175e-06
5.566667e-06
5.567501e-06
5.571661e-06
5.578916e-06
5.588835e-06
5.600807e-06
5.614078e-06
5.627797e-06
5.641063e-06
5.652988e-06
5.662751e-06
5.669655e-06
5.673177e-06
5.673004e-06
5.669055e-06
5.661491e-06
5.650705e-06
5.637292e-06
5.622011e-06
5.605738e-06
5.589406e-06
5.573948e-06
5.560241e-06
5.549056e-06
5.541011e-06
5.536542e-06
5.535876e-06
5.539019e-06
5.545760e-06
5.555679e-06
5.568170e-06
5.582477e-06
5.597737e-06
5.613030e-06
5.627437e-06
5.640101e-06
5.650276e-06
5.657385e-06
5.661054e-06
5.661135e-06
5.657721e-06
5.651134e-06
5.641899e-06
5.630709e-06
5.618376e-06
5.605773e-06
5.593779e-06
5.583221e-06
5.805670e-06
5.776601e-06
5.762490e-06
5.764176e-06
5.781632e-06
5.813960e-06
5.859412e-06
5.915433e-06
5.978753e-06
6.045518e-06
6.111495e-06
6.172323e-06
6.223821e-06
6.262317e-06
6.284963e-06
6.289992e-06
6.276890e-06
6.246443e-06
6.200658e-06
6.142578e-06
6.076004e-06
6.005183e-06
5.934490e-06
5.868133e-06
5.809919e-06
5.763072e-06
5.730102e-06
5.712727e-06
5.711826e-06
5.727413e-06
5.758638e-06
5.803796e-06
5.860376e-06
5.925137e-06
5.994245e-06
6.063461e-06
6.128395e-06
6.184807e-06
6.228936e-06
6.257817e-06
6.269548e-06
6.263464e-06
6.240197e-06
6.201608e-06
6.150600e-06
6.090859e-06
6.026532e-06
5.961914e-06
5.901155e-06
5.848012e-06
6.359987e-06
6.267278e-06
6.221277e-06
6.223832e-06
6.274990e-06
6.372962e-06
6.513957e-06
6.691923e-06
6.898290e-06
7.121866e-06
7.349033e-06
7.564386e-06
7.751883e-06
7.896439e-06
7.985725e-06
8.011833e-06
7.972406e-06
7.870964e-06
7.716336e-06
7.521369e-06
7.301221e-06
7.071636e-06
6.847502e-06
6.641857e-06
6.465387e-06
6.326303e-06
6.230477e-06
6.181676e-06
6.181781e-06
6.230897e-06
6.327323e-06
6.467369e-06
6.645096e-06
6.852043e-06
7.077110e-06
7.306736e-06
7.525524e-06
7.717384e-06
7.867115e-06
7.962215e-06
7.994559e-06
7.961556e-06
7.866502e-06
7.718043e-06
7.528894e-06
7.314141e-06
7.089504e-06
6.869884e-06
6.668356e-06
6.495642e-06
7.455520e-06
7.224173e-06
7.110017e-06
7.114337e-06
7.237658e-06
7.479643e-06
7.838035e-06
8.306680e-06
8.872770e-06
9.513801e-06
1.019512e-05
1.086943e-05
1.147949e-05
1.196496e-05
1.227231e-05
1.236563e-05
1.223447e-05
1.189614e-05
1.139128e-05
1.077487e-05
1.010562e-05
9.437211e-06
8.812984e-06
8.264260e-06
7.811408e-06
7.466308e-06
7.235157e-06
7.120891e-06
7.124881e-06
7.247756e-06
7.489290e-06
7.847331e-06
8.315795e-06
8.881899e-06
9.523110e-06
1.020471e-05
1.087927e-05
1.148948e-05
1.197484e-05
1.228173e-05
1.237408e-05
1.224139e-05
1.190096e-05
1.139355e-05
1.077437e-05
1.010239e-05
9.431547e-06
8.805311e-06
8.255073e-06
7.801197e-06
9.356122e-06
8.859581e-06
8.620880e-06
8.632908e-06
8.898090e-06
9.428335e-06
1.024264e-05
1.136132e-05
1.279539e-05
1.453012e-05
1.650410e-05
1.858998e-05
2.058838e-05
2.224841e-05
2.331994e-05
2.362443e-05
2.311328e-05
2.188343e-05
2.014179e-05
1.813907e-05
1.610575e-05
1.421339e-05
1.256558e-05
1.120904e-05
1.015263e-05
9.385437e-06
8.890408e-06
8.653042e-06
8.666286e-06
8.932679e-06
9.464300e-06
1.028030e-05
1.140101e-05
1.283726e-05
1.457386e-05
1.654880e-05
1.863415e-05
2.063026e-05
2.228628e-05
2.335240e-05
2.365029e-05
2.313153e-05
2.189330e-05
2.014306e-05
1.813228e-05
1.609213e-05
1.419450e-05
1.254286e-05
1.118357e-05
1.012505e-05
1.223463e-05
1.127840e-05
1.083586e-05
1.087065e-05
1.139106e-05
1.245120e-05
1.415245e-05
1.664079e-05
2.008959e-05
2.465127e-05
3.036041e-05
3.698779e-05
4.389655e-05
5.002175e-05
5.410326e-05
5.515701e-05
5.293300e-05
4.803336e-05
4.160250e-05
3.483072e-05
2.859021e-05
2.333211e-05
1.917196e-05
1.603303e-05
1.376487e-05
1.221435e-05
1.125849e-05
1.081606e-05
1.085031e-05
1.136947e-05
1.242786e-05
1.412722e-05
1.661381e-05
2.006103e-05
2.462107e-05
3.032798e-05
3.695229e-05
4.385794e-05
4.998212e-05
5.406695e-05
5.512867e-05
5.291507e-05
4.802525e-05
4.160191e-05
3.483563e-05
2.859959e-05
2.334557e-05
1.918886e-05
1.605226e-05
1.378513e-05
1.599086e-05
1.432564e-05
1.358537e-05
1.366476e-05
1.458707e-05
1.650890e-05
1.975110e-05
2.485241e-05
3.261888e-05
4.410267e-05
6.036559e-05
8.180597e-05
1.069843e-04
1.315747e-04
1.489102e-04
1.530354e-04
1.425020e-04
1.213505e-04
9.626723e-05
7.284429e-05
5.388200e-05
3.983457e-05
2.997176e-05
2.326744e-05
1.882325e-05
1.598378e-05
1.431918e-05
1.357903e-05
1.365784e-05
1.457900e-05
1.649937e-05
1.974006e-05
2.483973e-05
3.260436e-05
4.408645e-05
6.034818e-05
8.178711e-05
1.069629e-04
1.315515e-04
1.488895e-04
1.530219e-04
1.424969e-04
1.213514e-04
9.627045e-05
7.284754e-05
5.388546e-05
3.983944e-05
2.997845e-05
2.327519e-05
1.883097e-05
2.038347e-05
1.776609e-05
1.664784e-05
1.680002e-05
1.828011e-05
2.143783e-05
2.704134e-05
3.656714e-05
5.266005e-05
7.972335e-05
1.242445e-04
1.933009e-04
2.884406e-04
3.949005e-04
4.767867e-04
4.949849e-04
4.401441e-04
3.415269e-04
2.395582e-04
1.584195e-04
1.027726e-04
6.754624e-05
4.602366e-05
3.299189e-05
2.510664e-05
2.040607e-05
1.778781e-05
1.666952e-05
1.682255e-05
1.830458e-05
2.146587e-05
2.707498e-05
3.660814e-05
5.270907e-05
7.978242e-05
1.243211e-04
1.934019e-04
2.885631e-04
3.950359e-04
4.769205e-04
4.950906e-04
4.402068e-04
3.415544e-04
2.395626e-04
1.584091e-04
1.027530e-04
6.752278e-05
4.599968e-05
3.296808e-05
2.508313e-05
2.504634e-05
2.131134e-05
1.977413e-05
2.002879e-05
2.219480e-05
2.691914e-05
3.570908e-05
5.183308e-05
8.214742e-05
1.406975e-04
2.549336e-04
4.706257e-04
8.354310e-04
1.326887e-03
1.757018e-03
1.848336e-03
1.533508e-03
1.041387e-03
6.181076e-04
3.442458e-04
1.909486e-04
1.100087e-04
6.750644e-05
4.467831e-05
3.206029e-05
2.502139e-05
2.128639e-05
1.975008e-05
2.000390e-05
2.216754e-05
2.688786e-05
3.567065e-05
5.178638e-05
8.208668e-05
1.406082e-04
2.548108e-04
4.704601e-04
8.351827e-04
1.326580e-03
1.756742e-03
1.848109e-03
1.533359e-03
1.041333e-03
6.181074e-04
3.442731e-04
1.909834e-04
1.100416e-04
6.753854e-05
4.470771e-05
3.208589e-05
2.954715e-05
2.466060e-05
2.271467e-05
2.309750e-05
2.598406e-05
3.240399e-05
4.491688e-05
6.954790e-05
1.207750e-04
2.345365e-04
5.010203e-04
1.130545e-03
2.500659e-03
4.866683e-03
7.368423e-03
7.893603e-03
5.898951e-03
3.317991e-03
1.583325e-03
7.170671e-04
3.341578e-04
1.680280e-04
9.318306e-05
5.735347e-05
3.914903e-05
2.956980e-05
2.468139e-05
2.273853e-05
2.312008e-05
2.600843e-05
3.243557e-05
4.495038e-05
6.959336e-05
1.208476e-04
2.346332e-04
5.011843e-04
1.130850e-03
2.501082e-03
4.867311e-03
7.369267e-03
7.894214e-03
5.899354e-03
3.318210e-03
1.583337e-03
7.170406e-04
3.341281e-04
1.679881e-04
9.315224e-05
5.732874e-05
3.912287e-05
3.372229e-05
2.780239e-05
2.550816e-05
2.603557e-05
2.958773e-05
3.760136e-05
5.387855e-05
8.786235e-05
1.649549e-04
3.596831e-04
9.056693e-04
2.540185e-03
7.310723e-03
1.869805e-02
3.458438e-02
3.804607e-02
2.413811e-02
1.041834e-02
3.790757e-03
1.363602e-03
5.322646e-04
2.355202e-04
1.195725e-04
6.938817e-05
4.563098e-05
3.370220e-05
2.778033e-05
2.549065e-05
2.601383e-05
2.956260e-05
3.757912e-05
5.384403e-05
8.781798e-05
1.648945e-04
3.595680e-04
9.054689e-04
2.539814e-03
7.309963e-03
1.869700e-02
3.458301e-02
3.804493e-02
2.413774e-02
1.041828e-02
3.790766e-03
1.363658e-03
5.323279e-04
2.355545e-04
1.196032e-04
6.941606e-05
4.565210e-05
3.727056e-05
3.060319e-05
2.805988e-05
2.868197e-05
3.276461e-05
4.207950e-05
6.143401e-05
1.035994e-04
2.061358e-04
4.935164e-04
1.434284e-03
4.956827e-03
1.897962e-02
6.882780e-02
1.725558e-01
1.976865e-01
9.634489e-02
2.905968e-02
7.792170e-03
2.237523e-03
7.469135e-04
2.980454e-04
1.418420e-04
7.924115e-05
5.102136e-05
3.729269e-05
3.062191e-05
2.807877e-05
2.870321e-05
3.278771e-05
4.210474e-05
6.146409e-05
1.036493e-04
2.061955e-04
4.936492e-04
1.434541e-03
4.957399e-03
1.898092e-02
6.883112e-02
1.725607e-01
1.976935e-01
9.634821e-02
2.906024e-02
7.792449e-03
2.237464e-03
7.468710e-04
2.980099e-04
1.418156e-04
7.921270e-05
5.100322e-05
4.013483e-05
3.304622e-05
3.036601e-05
3.107221e-05
3.548610e-05
4.559507e-05
6.683581e-05
1.141768e-04
2.339669e-04
5.930745e-04
1.903366e-03
7.715364e-03
3.784966e-02
1.981361e-01
7.036077e-01
8.187000e-01
2.988594e-01
6.069806e-02
1.239653e-02
2.995292e-03
8.983402e-04
3.367488e-04
1.550963e-04
8.543897e-05
5.481476e-05
4.011473e-05
3.302617e-05
3.034860e-05
3.104840e-05
3.546649e-05
4.556766e-05
6.680462e-05
1.141377e-04
2.338839e-04
5.929894e-04
1.902996e-03
7.714828e-03
3.784769e-02
1.981294e-01
7.036093e-01
8.187011e-01
2.988597e-01
6.069884e-02
1.239664e-02
2.995361e-03
8.984292e-04
3.367767e-04
1.551325e-04
8.546203e-05
5.483705e-05
4.208035e-05
3.492712e-05
3.222721e-05
3.298440e-05
3.750066e-05
4.784061e-05
6.948641e-05
1.178013e-04
2.409647e-04
6.180671e-04
2.053719e-03
8.911033e-03
4.921222e-02
3.135696e-01
9.737696e-01
6.692490e-01
4.706734e-01
7.755605e-02
1.398476e-02
3.158156e-03
9.162952e-04
3.399593e-04
1.571977e-04
8.753279e-05
5.687358e-05
4.209915e-05
3.494133e-05
3.225440e-05
3.299324e-05
3.753422e-05
4.785610e-05
6.951731e-05
1.178574e-04
2.409848e-04
6.182794e-04
2.053780e-03
8.912011e-03
4.921396e-02
3.135680e-01
9.737640e-01
6.692084e-01
4.706715e-01
7.755945e-02
1.398474e-02
3.158143e-03
9.162674e-04
3.399233e-04
1.571699e-04
8.751503e-05
5.684927e-05
4.310558e-05
3.621290e-05
3.360180e-05
3.436382e-05
3.880028e-05
4.884607e-05
6.956848e-05
1.149090e-04
2.278795e-04
5.642986e-04
1.805990e-03
7.501723e-03
3.877590e-02
2.188609e-01
8.033914e-01
8.878880e-01
2.980732e-01
5.592245e-02
1.100357e-02
2.635337e-03
8.022185e-04
3.107518e-04
1.492512e-04
8.580517e-05
5.715952e-05
4.309019e-05
3.619677e-05
3.359560e-05
3.433644e-05
3.879662e-05
4.881970e-05
6.954462e-05
1.148998e-04
2.277811e-04
5.643343e-04
1.805617e-03
7.501558e-03
3.877439e-02
2.188528e-01
8.033836e-01
8.878929e-01
2.980652e-01
5.592421e-02
1.100349e-02
2.635352e-03
8.022948e-04
3.107615e-04
1.492777e-04
8.581844e-05
5.717553e-05
4.319046e-05
3.678789e-05
3.435888e-05
3.508212e-05
3.929496e-05
4.861914e-05
6.745124e-05
1.072444e-04
2.014285e-04
4.635435e-04
1.342627e-03
4.855829e-03
2.034130e-02
8.235973e-02
2.202340e-01
2.356317e-01
9.834668e-02
2.607963e-02
6.502222e-03
1.826943e-03
6.241646e-04
2.635331e-04
1.349942e-04
8.132199e-05
5.600901e-05
4.319175e-05
3.679743e-05
3.435962e-05
3.509452e-05
3.928753e-05
4.863573e-05
6.745814e-05
1.072401e-04
2.014788e-04
4.634906e-04
1.342809e-03
4.855569e-03
2.034166e-02
8.236054e-02
2.202315e-01
2.356233e-01
9.835206e-02
2.607911e-02
6.502286e-03
1.826950e-03
6.241361e-04
2.635661e-04
1.349712e-04
8.131314e-05
5.600879e-05
4.249270e-05
3.672397e-05
3.450839e-05
3.520386e-05
3.905920e-05
4.744721e-05
6.388075e-05
9.705819e-05
1.704362e-04
3.555267e-04
8.961431e-04
2.669170e-03
8.548897e-03
2.438309e-02
4.704422e-02
4.813529e-02
2.635719e-02
9.865704e-03
3.263550e-03
1.132567e-03
4.517716e-04
2.133592e-04
1.182576e-04
7.523493e-05
5.376831e-05
4.248909e-05
3.673641e-05
3.452804e-05
3.520889e-05
3.906616e-05
4.745514e-05
6.390013e-05
9.707045e-05
1.704513e-04
3.555909e-04
8.961064e-04
2.669317e-03
8.549244e-03
2.438347e-02
4.704306e-02
4.813551e-02
2.635750e-02
9.866457e-03
3.263315e-03
1.132427e-03
4.518443e-04
2.133695e-04
1.182361e-04
7.520720e-05
5.376758e-05
4.121035e-05
3.614017e-05
3.417072e-05
3.480436e-05
3.825609e-05
4.562763e-05
5.955236e-05
8.623863e-05
1.409613e-04
2.642407e-04
5.710434e-04
1.379953e-03
3.392697e-03
7.229460e-03
1.115487e-02
1.113806e-02
7.341299e-03
3.621549e-03
1.563070e-03
6.749760e-04
3.178949e-04
1.691616e-04
1.018487e-04
6.853064e-05
5.085231e-05
4.118097e-05
3.611831e-05
3.416080e-05
3.478825e-05
3.822938e-05
4.559497e-05
5.952608e-05
8.623042e-05
1.409200e-04
2.641504e-04
5.709282e-04
1.379829e-03
3.392615e-03
7.228910e-03
1.115376e-02
1.113758e-02
7.341527e-03
3.621512e-03
1.562986e-03
6.749713e-04
3.179235e-04
1.692135e-04
1.018581e-04
6.853417e-05
5.087281e-05
3.947378e-05
3.510140e-05
3.339616e-05
3.396735e-05
3.699780e-05
4.331369e-05
5.491721e-05
7.598911e-05
1.157402e-04
1.955164e-04
3.645141e-04
7.243292e-04
1.413217e-03
2.400455e-03
3.180433e-03
3.136211e-03
2.353012e-03
1.433203e-03
7.749656e-04
4.082812e-04
2.247386e-04
1.339333e-04
8.724364e-05
6.195506e-05
4.766508e-05
3.949880e-05
3.511534e-05
3.340695e-05
3.399090e-05
3.701798e-05
4.333399e-05
5.494090e-05
7.601066e-05
1.157793e-04
1.955512e-04
3.645852e-04
7.244426e-04
1.413262e-03
2.400541e-03
3.180755e-03
3.136392e-03
2.352979e-03
1.433172e-03
7.750164e-04
4.082978e-04
2.247132e-04
1.338909e-04
8.724280e-05
6.195204e-05
4.764100e-05
3.756826e-05
3.381876e-05
3.235274e-05
3.286596e-05
3.549067e-05
4.088800e-05
5.041145e-05
6.682526e-05
9.549861e-05
1.468327e-04
2.400102e-04
4.031157e-04
6.515423e-04
9.326776e-04
1.112306e-03
1.091087e-03
8.985531e-04
6.414501e-04
4.151445e-04
2.581410e-04
1.625740e-04
1.071188e-04
7.490911e-05
5.582844e-05
4.437199e-05
3.756763e-05
3.382675e-05
3.235222e-05
3.285540e-05
3.549368e-05
4.089666e-05
5.040827e-05
6.681313e-05
9.549122e-05
1.468562e-04
2.400181e-04
4.030632e-04
6.515361e-04
9.327323e-04
1.112293e-03
1.091040e-03
8.985472e-04
6.414707e-04
4.151381e-04
2.581359e-04
1.625717e-04
1.071349e-04
7.489778e-05
5.582798e-05
4.438021e-05
3.556304e-05
3.238863e-05
3.111716e-05
3.156874e-05
3.385527e-05
3.841128e-05
4.619686e-05
5.892661e-05
7.956905e-05
1.127987e-04
1.650933e-04
2.417009e-04
3.372578e-04
4.256021e-04
4.719843e-04
4.625676e-04
4.078696e-04
3.272140e-04
2.430323e-04
1.725247e-04
1.213548e-04
8.702509e-05
6.469185e-05
5.034379e-05
4.119725e-05
3.554060e-05
3.235833e-05
3.110266e-05
3.155754e-05
3.383025e-05
3.837352e-05
4.617451e-05
5.892003e-05
7.953784e-05
1.127400e-04
1.650281e-04
2.416959e-04
3.372168e-04
4.254967e-04
4.718912e-04
4.625608e-04
4.078448e-04
3.272008e-04
2.430259e-04
1.725240e-04
1.213806e-04
8.703024e-05
6.471817e-05
5.035256e-05
4.121038e-05
3.346611e-05
3.076381e-05
2.970155e-05
3.011225e-05
3.205907e-05
3.587531e-05
4.224282e-05
5.216237e-05
6.701827e-05
8.870764e-05
1.186398e-04
1.559140e-04
1.944779e-04
2.238012e-04
2.360575e-04
2.318293e-04
2.147921e-04
1.877244e-04
1.546168e-04
1.216346e-04
9.352847e-05
7.189013e-05
5.631093e-05
4.546300e-05
3.816847e-05
3.349116e-05
3.079724e-05
2.971384e-05
3.012899e-05
3.208145e-05
3.592051e-05
4.226830e-05
5.216385e-05
6.705995e-05
8.875433e-05
1.187066e-04
1.559145e-04
1.945042e-04
2.238756e-04
2.361392e-04
2.318120e-04
2.148242e-04
1.877225e-04
1.546272e-04
1.216453e-04
9.349563e-05
7.188264e-05
5.628334e-05
4.545950e-05
3.815037e-05
3.126137e-05
2.900161e-05
2.807661e-05
2.841967e-05
3.010035e-05
3.335498e-05
3.848524e-05
4.611411e-05
5.695838e-05
7.123988e-05
8.853969e-05
1.068544e-04
1.225430e-04
1.319040e-04
1.343733e-04
1.321692e-04
1.270622e-04
1.182780e-04
1.052717e-04
8.955502e-05
7.383154e-05
6.013642e-05
4.913908e-05
4.093801e-05
3.512339e-05
3.125920e-05
2.899165e-05
2.809372e-05
2.842584e-05
3.011278e-05
3.333201e-05
3.848976e-05
4.615087e-05
5.694352e-05
7.124481e-05
8.851375e-05
1.069016e-04
1.225635e-04
1.318840e-04
1.343370e-04
1.322291e-04
1.270411e-04
1.182994e-04
1.052558e-04
8.953311e-05
7.385747e-05
6.012731e-05
4.915000e-05
4.091684e-05
3.511999e-05
2.861282e-05
2.672062e-05
2.597729e-05
2.628854e-05
2.769951e-05
3.032135e-05
3.450101e-05
4.041539e-05
4.813002e-05
5.749488e-05
6.747769e-05
7.634239e-05
8.208493e-05
8.408329e-05
8.355177e-05
8.248946e-05
8.142450e-05
7.934946e-05
7.480669e-05
6.763709e-05
5.893879e-05
5.015681e-05
4.248833e-05
3.631431e-05
3.173104e-05
2.859172e-05
2.670524e-05
2.592921e-05
2.625402e-05
2.765178e-05
3.031972e-05
3.446223e-05
4.034097e-05
4.811247e-05
5.744766e-05
6.746639e-05
7.625392e-05
8.203152e-05
8.406872e-05
8.355283e-05
8.240915e-05
8.143202e-05
7.931458e-05
7.483029e-05
6.766147e-05
5.892236e-05
5.018445e-05
4.249424e-05
3.635716e-05
3.176299e-05
2.493349e-05
2.343483e-05
2.280359e-05
2.306038e-05
2.420295e-05
2.634441e-05
2.953197e-05
3.391309e-05
3.935813e-05
4.533758e-05
5.089825e-05
5.472630e-05
5.616746e-05
5.554139e-05
5.422197e-05
5.359615e-05
5.401585e-05
5.446277e-05
5.362519e-05
5.073643e-05
4.608693e-05
4.067642e-05
3.541409e-05
3.092882e-05
2.742237e-05
2.494130e-05
2.343814e-05
2.284077e-05
2.308945e-05
2.423653e-05
2.633119e-05
2.956172e-05
3.397440e-05
3.936762e-05
4.535877e-05
5.089586e-05
5.479807e-05
5.620071e-05
5.553832e-05
5.421721e-05
5.364829e-05
5.401069e-05
5.449040e-05
5.359675e-05
5.072608e-05
4.610208e-05
4.065411e-05
3.541494e-05
3.090020e-05
2.739077e-05
1.968338e-05
1.856952e-05
1.813759e-05
1.832457e-05
1.916434e-05
2.071506e-05
2.302225e-05
2.602763e-05
2.958994e-05
3.315533e-05
3.596334e-05
3.733982e-05
3.700389e-05
3.562204e-05
3.437387e-05
3.404774e-05
3.478417e-05
3.597273e-05
3.654445e-05
3.572719e-05
3.350584e-05
3.039964e-05
2.701988e-05
2.394733e-05
2.149192e-05
1.972105e-05
1.861363e-05
1.815558e-05
1.833239e-05
1.919631e-05
2.077688e-05
2.304641e-05
2.602734e-05
2.962181e-05
3.321953e-05
3.601041e-05
3.733070e-05
3.702226e-05
3.567237e-05
3.440394e-05
3.405258e-05
3.478777e-05
3.597390e-05
3.656649e-05
3.571481e-05
3.349014e-05
3.038693e-05
2.699619e-05
2.392951e-05
2.148889e-05
1.297789e-05
1.230609e-05
1.201783e-05
1.212093e-05
1.268099e-05
1.363287e-05
1.501929e-05
1.679686e-05
1.878104e-05
2.065882e-05
2.186549e-05
2.208493e-05
2.135601e-05
2.022401e-05
1.931199e-05
1.916050e-05
1.975929e-05
2.079343e-05
2.157768e-05
2.161321e-05
2.074298e-05
1.911993e-05
1.729196e-05
1.551850e-05
1.403144e-05
1.292611e-05
1.224440e-05
1.196694e-05
1.210922e-05
1.260807e-05
1.356207e-05
1.496679e-05
1.676540e-05
1.874704e-05
2.054236e-05
2.182297e-05
2.205824e-05
2.132203e-05
2.015805e-05
1.928157e-05
1.912194e-05
1.977701e-05
2.075886e-05
2.157489e-05
2.163500e-05
2.074068e-05
1.916750e-05
1.731065e-05
1.555938e-05
1.405538e-05
6.176595e-06
5.851297e-06
5.720484e-06
5.828558e-06
6.023544e-06
6.448747e-06
7.090959e-06
7.914188e-06
8.719998e-06
9.403733e-06
9.880845e-06
9.789716e-06
9.315602e-06
8.685032e-06
8.264026e-06
8.209007e-06
8.568884e-06
9.042070e-06
9.551246e-06
9.767554e-06
9.463971e-06
8.880441e-06
8.084697e-06
7.333106e-06
6.665495e-06
6.173911e-06
5.859416e-06
5.731441e-06
5.775734e-06
6.054102e-06
6.449009e-06
7.095914e-06
7.896213e-06
8.681043e-06
9.475140e-06
9.840787e-06
9.781108e-06
9.300532e-06
8.708599e-06
8.254027e-06
8.230061e-06
8.512506e-06
9.091237e-06
9.533243e-06
9.759093e-06
9.502467e-06
8.831050e-06
8.115793e-06
7.328845e-06
6.672218e-06
1.601323e-06
1.533526e-06
1.506089e-06
1.453244e-06
1.570080e-06
1.711750e-06
1.843327e-06
1.975289e-06
2.250057e-06
2.473996e-06
2.453954e-06
2.445385e-06
2.314437e-06
2.174101e-06
2.062333e-06
2.030668e-06
2.078719e-06
2.329661e-06
2.460163e-06
2.459022e-06
2.469321e-06
2.334775e-06
2.160423e-06
1.935394e-06
1.782408e-06
1.657901e-06
1.581312e-06
1.551336e-06
1.567110e-06
1.599921e-06
1.776421e-06
1.897473e-06
2.056882e-06