# vtk DataFile Version 3.0
Tensor
ASCII
DATASET UNSTRUCTURED_GRID
POINTS 1650 float
0.000087556026434 0.000000000000000 0.000000000000000
0.000086865621014 0.000010973679911 0.000000000000000
0.000084805292859 0.000021774298334 0.000000000000000
0.000081407534576 0.000032231523066 0.000000000000000
0.000076725930842 0.000042180437424 0.000000000000000
0.000070834313345 0.000051464141087 0.000000000000000
0.000063825596412 0.000059936224502 0.000000000000000
0.000055810311696 0.000067463077852 0.000000000000000
0.000046914865025 0.000073925998164 0.000000000000000
0.000037279542907 0.000079223061324 0.000000000000000
0.000027056300128 0.000083270729481 0.000000000000000
0.000016406363333 0.000086005168491 0.000000000000000
0.000005497688388 0.000087383254616 0.000000000000000
-0.000005497688388 0.000087383254616 0.000000000000000
-0.000016406363333 0.000086005168491 0.000000000000000
-0.000027056300128 0.000083270729481 0.000000000000000
-0.000037279542907 0.000079223061324 0.000000000000000
-0.000046914865025 0.000073925998164 0.000000000000000
-0.000055810311696 0.000067463077852 0.000000000000000
-0.000063825596412 0.000059936224502 0.000000000000000
-0.000070834313345 0.000051464141087 0.000000000000000
-0.000076725930842 0.000042180437424 0.000000000000000
-0.000081407534576 0.000032231523066 0.000000000000000
-0.000084805292859 0.000021774298334 0.000000000000000
-0.000086865621014 0.000010973679911 0.000000000000000
-0.000087556026434 0.000000000000000 0.000000000000000
-0.000086865621014 -0.000010973679911 0.000000000000000
-0.000084805292859 -0.000021774298334 0.000000000000000
-0.000081407534576 -0.000032231523066 0.000000000000000
-0.000076725930842 -0.000042180437424 0.000000000000000
-0.000070834313345 -0.000051464141087 0.000000000000000
-0.000063825596412 -0.000059936224502 0.000000000000000
-0.000055810311696 -0.000067463077852 0.000000000000000
-0.000046914865025 -0.000073925998164 0.000000000000000
-0.000037279542907 -0.000079223061324 0.000000000000000
-0.000027056300128 -0.000083270729481 0.000000000000000
-0.000016406363333 -0.000086005168491 0.000000000000000
-0.000005497688388 -0.000087383254616 0.000000000000000
0.000005497688388 -0.000087383254616 0.000000000000000
0.000016406363333 -0.000086005168491 0.000000000000000
0.000027056300128 -0.000083270729481 0.000000000000000
0.000037279542907 -0.000079223061324 0.000000000000000
0.000046914865025 -0.000073925998164 0.000000000000000
0.000055810311696 -0.000067463077852 0.000000000000000
0.000063825596412 -0.000059936224502 0.000000000000000
0.000070834313345 -0.000051464141087 0.000000000000000
0.000076725930842 -0.000042180437424 0.000000000000000
0.000081407534576 -0.000032231523066 0.000000000000000
0.000084805292859 -0.000021774298334 0.000000000000000
0.000086865621014 -0.000010973679911 0.000000000000000
0.003371443549894 0.000000000000000 0.000000000000000
0.003344858710501 0.000422553921888 0.000000000000000
0.003265523451123 0.000838443916006 0.000000000000000
0.003134688936191 0.001241111148706 0.000000000000000
0.002954418504162 0.001624205317188 0.000000000000000
0.002727555127440 0.001981684797564 0.000000000000000
0.002457676576995 0.002307911924882 0.000000000000000
0.002149038998786 0.002597741902464 0.000000000000000
0.001806509791792 0.002846603938429 0.000000000000000
0.001435490846225 0.003050573329806 0.000000000000000
0.001041833352493 0.003206433357448 0.000000000000000
0.000631745524431 0.003311726015612 0.000000000000000
0.000211694692062 0.003364790776181 0.000000000000000
-0.000211694692062 0.003364790776181 0.000000000000000
-0.000631745524431 0.003311726015612 0.000000000000000
-0.001041833352493 0.003206433357448 0.000000000000000
-0.001435490846225 0.003050573329806 0.000000000000000
-0.001806509791792 0.002846603938429 0.000000000000000
-0.002149038998786 0.002597741902464 0.000000000000000
-0.002457676576995 0.002307911924882 0.000000000000000
-0.002727555127440 0.001981684797564 0.000000000000000
-0.002954418504162 0.001624205317188 0.000000000000000
-0.003134688936191 0.001241111148706 0.000000000000000
-0.003265523451123 0.000838443916006 0.000000000000000
-0.003344858710501 0.000422553921888 0.000000000000000
-0.003371443549894 0.000000000000000 0.000000000000000
-0.003344858710501 -0.000422553921888 0.000000000000000
-0.003265523451123 -0.000838443916006 0.000000000000000
-0.003134688936191 -0.001241111148706 0.000000000000000
-0.002954418504162 -0.001624205317188 0.000000000000000
-0.002727555127440 -0.001981684797564 0.000000000000000
-0.002457676576995 -0.002307911924882 0.000000000000000
-0.002149038998786 -0.002597741902464 0.000000000000000
-0.001806509791792 -0.002846603938429 0.000000000000000
-0.001435490846225 -0.003050573329806 0.000000000000000
-0.001041833352493 -0.003206433357448 0.000000000000000
-0.000631745524431 -0.003311726015612 0.000000000000000
-0.000211694692062 -0.003364790776181 0.000000000000000
0.000211694692062 -0.003364790776181 0.000000000000000
0.000631745524431 -0.003311726015612 0.000000000000000
0.001041833352493 -0.003206433357448 0.000000000000000
0.001435490846225 -0.003050573329806 0.000000000000000
0.001806509791792 -0.002846603938429 0.000000000000000
0.002149038998786 -0.002597741902464 0.000000000000000
0.002457676576995 -0.002307911924882 0.000000000000000
0.002727555127440 -0.001981684797564 0.000000000000000
0.002954418504162 -0.001624205317188 0.000000000000000
0.003134688936191 -0.001241111148706 0.000000000000000
0.003265523451123 -0.000838443916006 0.000000000000000
0.003344858710501 -0.000422553921888 0.000000000000000
0.011400754268046 0.000000000000000 0.000000000000000
0.011310855915403 0.001428893397486 0.000000000000000
0.011042578608195 0.002835252292515 0.000000000000000
0.010600153239820 0.004196897565192 0.000000000000000
0.009990557122628 0.005492355256162 0.000000000000000
0.009223403951542 0.006701195223768 0.000000000000000
0.008310792190347 0.007804353339595 0.000000000000000
0.007267114271682 0.008784432141162 0.000000000000000
0.006108829619790 0.009625975200298 0.000000000000000
0.004854205075556 0.010315710880246 0.000000000000000
0.003523026817519 0.010842761637305 0.000000000000000
0.002136288322015 0.011198815566193 0.000000000000000
0.000715859283517 0.011378257483753 0.000000000000000
-0.000715859283517 0.011378257483753 0.000000000000000
-0.002136288322015 0.011198815566193 0.000000000000000
-0.003523026817519 0.010842761637305 0.000000000000000
-0.004854205075556 0.010315710880246 0.000000000000000
-0.006108829619790 0.009625975200298 0.000000000000000
-0.007267114271682 0.008784432141162 0.000000000000000
-0.008310792190347 0.007804353339595 0.000000000000000
-0.009223403951542 0.006701195223768 0.000000000000000
-0.009990557122628 0.005492355256162 0.000000000000000
-0.010600153239820 0.004196897565192 0.000000000000000
-0.011042578608195 0.002835252292515 0.000000000000000
-0.011310855915403 0.001428893397486 0.000000000000000
-0.011400754268046 0.000000000000000 0.000000000000000
-0.011310855915403 -0.001428893397486 0.000000000000000
-0.011042578608195 -0.002835252292515 0.000000000000000
-0.010600153239820 -0.004196897565192 0.000000000000000
-0.009990557122628 -0.005492355256162 0.000000000000000
-0.009223403951542 -0.006701195223768 0.000000000000000
-0.008310792190347 -0.007804353339595 0.000000000000000
-0.007267114271682 -0.008784432141162 0.000000000000000
-0.006108829619790 -0.009625975200298 0.000000000000000
-0.004854205075556 -0.010315710880246 0.000000000000000
-0.003523026817519 -0.010842761637305 0.000000000000000
-0.002136288322015 -0.011198815566193 0.000000000000000
-0.000715859283517 -0.011378257483753 0.000000000000000
0.000715859283517 -0.011378257483753 0.000000000000000
0.002136288322015 -0.011198815566193 0.000000000000000
0.003523026817519 -0.010842761637305 0.000000000000000
0.004854205075556 -0.010315710880246 0.000000000000000
0.006108829619790 -0.009625975200298 0.000000000000000
0.007267114271682 -0.008784432141162 0.000000000000000
0.008310792190347 -0.007804353339595 0.000000000000000
0.009223403951542 -0.006701195223768 0.000000000000000
0.009990557122628 -0.005492355256162 0.000000000000000
0.010600153239820 -0.004196897565192 0.000000000000000
0.011042578608195 -0.002835252292515 0.000000000000000
0.011310855915403 -0.001428893397486 0.000000000000000
0.024099019329368 0.000000000000000 0.000000000000000
0.023908991363928 0.003020408018278 0.000000000000000
0.023341904322139 0.005993182397804 0.000000000000000
0.022406701505413 0.008871440710763 0.000000000000000
0.021118131620831 0.011609791104171 0.000000000000000
0.019496516185229 0.014165048156514 0.000000000000000
0.017567429042731 0.016496913937638 0.000000000000000
0.015361293049956 0.018568613531188 0.000000000000000
0.012912900289392 0.020347474996998 0.000000000000000
0.010260863377471 0.021805444627114 0.000000000000000
0.007447006520545 0.022919529369518 0.000000000000000
0.004515705922164 0.023672159442302 0.000000000000000
0.001513189943838 0.024051465419619 0.000000000000000
-0.001513189943838 0.024051465419619 0.000000000000000
-0.004515705922164 0.023672159442302 0.000000000000000
-0.007447006520545 0.022919529369518 0.000000000000000
-0.010260863377471 0.021805444627114 0.000000000000000
-0.012912900289392 0.020347474996998 0.000000000000000
-0.015361293049956 0.018568613531188 0.000000000000000
-0.017567429042731 0.016496913937638 0.000000000000000
-0.019496516185229 0.014165048156514 0.000000000000000
-0.021118131620831 0.011609791104171 0.000000000000000
-0.022406701505413 0.008871440710763 0.000000000000000
-0.023341904322139 0.005993182397804 0.000000000000000
-0.023908991363928 0.003020408018278 0.000000000000000
-0.024099019329368 0.000000000000000 0.000000000000000
-0.023908991363928 -0.003020408018278 0.000000000000000
-0.023341904322139 -0.005993182397804 0.000000000000000
-0.022406701505413 -0.008871440710763 0.000000000000000
-0.021118131620831 -0.011609791104171 0.000000000000000
[...]
POINT_DATA 1650

SCALARS beta float 1
LOOKUP_TABLE default
1.192934e-07
1.192933e-07
1.192931e-07
1.192929e-07
1.192925e-07
1.192922e-07
1.192917e-07
1.192912e-07
1.192907e-07
1.192901e-07
1.192895e-07
1.192889e-07
1.192883e-07
1.192876e-07
1.192870e-07
1.192864e-07
1.192858e-07
1.192853e-07
1.192848e-07
1.192844e-07
1.192840e-07
1.192837e-07
1.192835e-07
1.192833e-07
1.192832e-07
1.192832e-07
1.192833e-07
1.192835e-07
1.192837e-07
1.192841e-07
1.192845e-07
1.192849e-07
1.192854e-07
1.192860e-07
1.192866e-07
1.192872e-07
1.192879e-07
1.192885e-07
1.192892e-07
1.192898e-07
1.192904e-07
1.192910e-07
1.192915e-07
1.192920e-07
1.192924e-07
1.192927e-07
1.192930e-07
1.192932e-07
1.192934e-07
1.192934e-07
1.197546e-07
1.197411e-07
1.197294e-07
1.197199e-07
1.197129e-07
1.197081e-07
1.197051e-07
1.197033e-07
1.197019e-07
1.197001e-07
1.196968e-07
1.196912e-07
1.196825e-07
1.196701e-07
1.196537e-07
1.196331e-07
1.196085e-07
1.195806e-07
1.195500e-07
1.195178e-07
1.194854e-07
1.194540e-07
1.194252e-07
1.194004e-07
1.193808e-07
1.193676e-07
1.193617e-07
1.193636e-07
1.193736e-07
1.193914e-07
1.194166e-07
1.194482e-07
1.194851e-07
1.195259e-07
1.195690e-07
1.196127e-07
1.196555e-07
1.196957e-07
1.197319e-07
1.197631e-07
1.197884e-07
1.198072e-07
1.198195e-07
1.198254e-07
1.198254e-07
1.198203e-07
1.198110e-07
1.197986e-07
1.197843e-07
1.197693e-07
1.230084e-07
1.228780e-07
1.227947e-07
1.227622e-07
1.227808e-07
1.228469e-07
1.229542e-07
1.230933e-07
1.232526e-07
1.234191e-07
1.235792e-07
1.237194e-07
1.238275e-07
1.238932e-07
1.239088e-07
1.238700e-07
1.237758e-07
1.236293e-07
1.234369e-07
1.232083e-07
1.229557e-07
1.226935e-07
1.224368e-07
1.222009e-07
1.220001e-07
1.218472e-07
1.217524e-07
1.217224e-07
1.217607e-07
1.218668e-07
1.220361e-07
1.222607e-07
1.225293e-07
1.228279e-07
1.231410e-07
1.234522e-07
1.237452e-07
1.240049e-07
1.242183e-07
1.243753e-07
1.244692e-07
1.244973e-07
1.244608e-07
1.243650e-07
1.242184e-07
1.240326e-07
1.238211e-07
1.235986e-07
1.233799e-07
1.231790e-07
1.342852e-07
1.336827e-07
1.333341e-07
1.332531e-07
1.334379e-07
1.338715e-07
1.345230e-07
1.353488e-07
1.362950e-07
1.372995e-07
1.382957e-07
1.392162e-07
1.399972e-07
1.405833e-07
1.409314e-07
1.410143e-07
1.408227e-07
1.403664e-07
1.396732e-07
1.387868e-07
1.377637e-07
1.366694e-07
1.355739e-07
1.345475e-07
1.336564e-07
1.329591e-07
1.325027e-07
1.323202e-07
1.324285e-07
1.328272e-07
1.334984e-07
1.344072e-07
1.355039e-07
1.367262e-07
1.380033e-07
1.392596e-07
1.404200e-07
1.414141e-07
1.421813e-07
1.426747e-07
1.428650e-07
1.427423e-07
1.423172e-07
1.416203e-07
1.406996e-07
1.396169e-07
1.384433e-07
1.372536e-07
1.361210e-07
1.351126e-07
1.627883e-07
1.607958e-07
1.596902e-07
1.594977e-07
1.602038e-07
1.617561e-07
1.640664e-07
1.670105e-07
1.704283e-07
1.741257e-07
1.778801e-07
1.814517e-07
1.846000e-07
1.871046e-07
1.887873e-07
1.895308e-07
1.892910e-07
1.881000e-07
1.860603e-07
1.833316e-07
1.801151e-07
1.766367e-07
1.731313e-07
1.698299e-07
1.669473e-07
1.646722e-07
1.631570e-07
1.625104e-07
1.627905e-07
1.640010e-07
1.660896e-07
1.689490e-07
1.724216e-07
1.763066e-07
1.803709e-07
1.843625e-07
1.880253e-07
1.911159e-07
1.934199e-07
1.947677e-07
1.950490e-07
1.942248e-07
1.923347e-07
1.894968e-07
1.859002e-07
1.817878e-07
1.774338e-07
1.731168e-07
1.690968e-07
1.655960e-07
2.271291e-07
2.215812e-07
2.185931e-07
2.181705e-07
2.202525e-07
2.247218e-07
2.313991e-07
2.400249e-07
2.502351e-07
2.615392e-07
2.733100e-07
2.847983e-07
2.951820e-07
3.036515e-07
3.095183e-07
3.123196e-07
3.118872e-07
3.083602e-07
3.021414e-07
2.938187e-07
2.840806e-07
2.736474e-07
2.632256e-07
2.534792e-07
2.450081e-07
2.383268e-07
2.338446e-07
2.318475e-07
2.324881e-07
2.357787e-07
2.415897e-07
2.496491e-07
2.595452e-07
2.707362e-07
2.825709e-07
2.943202e-07
3.052199e-07
3.145175e-07
3.215216e-07
3.256523e-07
3.264938e-07
3.238505e-07
3.177963e-07
3.087010e-07
2.972141e-07
2.841964e-07
2.706105e-07
2.573958e-07
2.453640e-07
2.351360e-07
3.684984e-07
3.541117e-07
3.465149e-07
3.456037e-07
3.512293e-07
3.631949e-07
3.812025e-07
4.047750e-07
4.331659e-07
4.652569e-07
4.994573e-07
5.336467e-07
5.652374e-07
5.914261e-07
6.096317e-07
6.180081e-07
6.158394e-07
6.036525e-07
5.830167e-07
5.561471e-07
5.254934e-07
4.934443e-07
4.621733e-07
4.335728e-07
4.092166e-07
3.903276e-07
3.777600e-07
3.720160e-07
3.732927e-07
3.815359e-07
3.964712e-07
4.175912e-07
4.441034e-07
4.748625e-07
5.083274e-07
5.425770e-07
5.753998e-07
6.044429e-07
6.273926e-07
6.421698e-07
6.471448e-07
6.413820e-07
6.248879e-07
5.987758e-07
5.652339e-07
5.272315e-07
4.880204e-07
4.505952e-07
4.172963e-07
3.896599e-07
6.631486e-07
6.263616e-07
6.070544e-07
6.047860e-07
6.192771e-07
6.502973e-07
6.974488e-07
7.599366e-07
8.363454e-07
9.243658e-07
1.020403e-06
1.119119e-06
1.213190e-06
1.293696e-06
1.351432e-06
1.378930e-06
1.372433e-06
1.332908e-06
1.265662e-06
1.178837e-06
1.081584e-06
9.825714e-07
8.890996e-07
8.067281e-07
7.392226e-07
6.887136e-07
6.560231e-07
6.411048e-07
6.435027e-07
6.627100e-07
6.983342e-07
7.500173e-07
8.171167e-07
8.982140e-07
9.905847e-07
1.089802e-06
1.189647e-06
1.282417e-06
1.359643e-06
1.413121e-06
1.436142e-06
1.424783e-06
1.378970e-06
1.302958e-06
1.204825e-06
1.094942e-06
9.838651e-07
8.804321e-07
7.906985e-07
7.179007e-07
1.222171e-06
1.132136e-06
1.085892e-06
1.080791e-06
1.115542e-06
1.190058e-06
1.304956e-06
1.460850e-06
1.657418e-06
1.892155e-06
2.158655e-06
2.444494e-06
2.729462e-06
2.985536e-06
3.180195e-06
3.283394e-06
3.276249e-06
3.157561e-06
2.944770e-06
2.668752e-06
2.365191e-06
2.066439e-06
1.796548e-06
1.569942e-06
1.392734e-06
1.265279e-06
1.184859e-06
1.147886e-06
1.151411e-06
1.193913e-06
1.275458e-06
1.397326e-06
1.561147e-06
1.767532e-06
2.014196e-06
2.293735e-06
2.591520e-06
2.884613e-06
3.142820e-06
3.332761e-06
3.424764e-06
3.400873e-06
3.260931e-06
3.023712e-06
2.722097e-06
2.394225e-06
2.074489e-06
1.787737e-06
1.547841e-06
1.359613e-06
2.221139e-06
2.018310e-06
1.918365e-06
1.909329e-06
1.985791e-06
2.148788e-06
2.405153e-06
2.766030e-06
3.244129e-06
3.849053e-06
4.579867e-06
5.415000e-06
6.301336e-06
7.147510e-06
7.830258e-06
8.221066e-06
8.229060e-06
7.840375e-06
7.128371e-06
6.225677e-06
5.275736e-06
4.392008e-06
3.640988e-06
3.046585e-06
2.604760e-06
2.298618e-06
2.108969e-06
2.020069e-06
2.022078e-06
2.111483e-06
2.290528e-06
2.566343e-06
2.949688e-06
3.452698e-06
4.084629e-06
4.844499e-06
5.710216e-06
6.626298e-06
7.496327e-06
8.189993e-06
8.572182e-06
8.549205e-06
8.110242e-06
7.336494e-06
6.369812e-06
5.360903e-06
4.427060e-06
3.635682e-06
3.010004e-06
2.544672e-06
3.894099e-06
3.466663e-06
3.260740e-06
3.241207e-06
3.394983e-06
3.728581e-06
4.267536e-06
5.055913e-06
6.155182e-06
7.638646e-06
9.573552e-06
1.198298e-05
1.478300e-05
1.770549e-05
2.026283e-05
2.184248e-05
2.195835e-05
2.052806e-05
1.793925e-05
1.483422e-05
1.180483e-05
9.212915e-06
7.185585e-06
5.698690e-06
4.663016e-06
3.981666e-06
3.574959e-06
3.386986e-06
3.385878e-06
3.560941e-06
3.920468e-06
4.491477e-06
5.319882e-06
6.469184e-06
8.014458e-06
1.002473e-05
1.252411e-05
1.542651e-05
1.845494e-05
2.110318e-05
2.273099e-05
2.282618e-05
2.129929e-05
1.855686e-05
1.527633e-05
1.208312e-05
9.358664e-06
7.234639e-06
5.682117e-06
4.603724e-06
6.409234e-06
5.582940e-06
5.194365e-06
5.156042e-06
5.438900e-06
6.063569e-06
7.102877e-06
8.690298e-06
1.103897e-05
1.446290e-05
1.937913e-05
2.623413e-05
3.526473e-05
4.597531e-05
5.649673e-05
6.361976e-05
6.434899e-05
5.820237e-05
4.767204e-05
3.624257e-05
2.634945e-05
1.885843e-05
1.362645e-05
1.015005e-05
7.915837e-06
6.534488e-06
5.745046e-06
5.386858e-06
5.377871e-06
5.692547e-06
6.355355e-06
7.443182e-06
9.096405e-06
1.153778e-05
1.509369e-05
2.019878e-05
2.732030e-05
3.671317e-05
4.787676e-05
5.887896e-05
6.636139e-05
6.714463e-05
6.067782e-05
4.957035e-05
3.751538e-05
2.710123e-05
1.924241e-05
1.377702e-05
1.016016e-05
7.842727e-06
9.885426e-06
8.442310e-06
7.783859e-06
7.722693e-06
8.198547e-06
9.261316e-06
1.107990e-05
1.398679e-05
1.858502e-05
2.591630e-05
3.774975e-05
5.683553e-05
8.666277e-05
1.291509e-04
1.785638e-04
2.161547e-04
2.196285e-04
1.862930e-04
1.363088e-04
9.070003e-05
5.788990e-05
3.698082e-05
2.437023e-05
1.692368e-05
1.254534e-05
1.000616e-05
8.613269e-06
7.990645e-06
7.965358e-06
8.483436e-06
9.603519e-06
1.149935e-05
1.451317e-05
1.926369e-05
2.682251e-05
3.902248e-05
5.872858e-05
8.963752e-05
1.339330e-04
1.859270e-04
2.261200e-04
2.306148e-04
1.958886e-04
1.430856e-04
9.476694e-05
6.006209e-05
3.803049e-05
2.481488e-05
1.705140e-05
1.251115e-05
1.418027e-05
1.189311e-05
1.087334e-05
1.077876e-05
1.150601e-05
1.315629e-05
1.605327e-05
2.087702e-05
2.901038e-05
4.323279e-05
6.939413e-05
1.197464e-04
2.182893e-04
4.002811e-04
6.731309e-04
9.208558e-04
9.353952e-04
7.027822e-04
4.242154e-04
2.301387e-04
1.228664e-04
6.823503e-05
4.057074e-05
2.620707e-05
1.850340e-05
1.431096e-05
1.210291e-05
1.113937e-05
1.109745e-05
1.187888e-05
1.359806e-05
1.658552e-05
2.154353e-05
2.988827e-05
4.446932e-05
7.129461e-05
1.230007e-04
2.245836e-04
4.136463e-04
7.009296e-04
9.682217e-04
9.918606e-04
7.481029e-04
4.506996e-04
2.428890e-04
1.284555e-04
7.055973e-05
4.148379e-05
2.649505e-05
1.851259e-05
1.898646e-05
1.571606e-05
1.429373e-05
1.416876e-05
1.519227e-05
1.752009e-05
2.168638e-05
2.887677e-05
4.170346e-05
6.621387e-05
1.176952e-04
2.380215e-04
5.466707e-04
1.349625e-03
3.087523e-03
5.174090e-03
5.200504e-03
3.145608e-03
1.395391e-03
5.666983e-04
2.419760e-04
1.150409e-04
6.173633e-05
3.732955e-05
2.529039e-05
1.907431e-05
1.590066e-05
1.454158e-05
1.447016e-05
1.555602e-05
1.796687e-05
2.224386e-05
2.959730e-05
4.266281e-05
6.758748e-05
1.198626e-04
2.421312e-04
5.567109e-04
1.382109e-03
3.200555e-03
5.461005e-03
5.582674e-03
3.402905e-03
1.505109e-03
6.052343e-04
2.551701e-04
1.197021e-04
6.342513e-05
3.789242e-05
2.540436e-05
2.376535e-05
1.950508e-05
1.767600e-05
1.752085e-05
1.884129e-05
2.185418e-05
2.731206e-05
3.695165e-05
5.487656e-05
9.162565e-05
1.782986e-04
4.220294e-04
1.252274e-03
4.487175e-03
1.601073e-02
3.759796e-02
3.679391e-02
1.537701e-02
4.374197e-03
1.244841e-03
4.190539e-04
1.722946e-04
8.487718e-05
4.882788e-05
3.213273e-05
2.384105e-05
1.970544e-05
1.795912e-05
1.786967e-05
1.925863e-05
2.235434e-05
2.791365e-05
3.770501e-05
5.583700e-05
9.293743e-05
1.801575e-04
4.249352e-04
1.258269e-03
4.522981e-03
1.637800e-02
3.964538e-02
4.005304e-02
1.693851e-02
4.787407e-03
1.342416e-03
4.443931e-04
1.798163e-04
8.734322e-05
4.962527e-05
3.231978e-05
2.805314e-05
2.296086e-05
2.079645e-05
2.062765e-05
2.220739e-05
2.580582e-05
3.233981e-05
4.400604e-05
6.619938e-05
1.137631e-04
2.352203e-04
6.277633e-04
2.320745e-03
1.202782e-02
7.441390e-02
3.032132e-01
2.805246e-01
6.457286e-02
1.074634e-02
2.173759e-03
6.030826e-04
2.239484e-04
1.047608e-04
5.869150e-05
3.810049e-05
2.806384e-05
2.311205e-05
2.102781e-05
2.092496e-05
2.257050e-05
2.624737e-05
3.287712e-05
4.465458e-05
6.697090e-05
1.145800e-04
2.355769e-04
6.243527e-04
2.291013e-03
1.182256e-02
7.384288e-02
3.143392e-01
3.086662e-01
7.217749e-02
1.186297e-02
2.354985e-03
6.409621e-04
2.339916e-04
1.078912e-04
5.972191e-05
3.838767e-05
3.142279e-05
2.577252e-05
2.337557e-05
2.319610e-05
2.496730e-05
2.897149e-05
3.620552e-05
4.909401e-05
7.364704e-05
1.269403e-04
2.672213e-04
7.498979e-04
3.097189e-03
1.999547e-02
1.884531e-01
9.987129e-01
9.682715e-01
1.451039e-01
1.637055e-02
2.741104e-03
6.993589e-04
2.517369e-04
1.167927e-04
6.542797e-05
4.256680e-05
3.141861e-05
2.591479e-05
2.360172e-05
2.348505e-05
2.531956e-05
2.938885e-05
3.669634e-05
4.964325e-05
7.419406e-05
1.271807e-04
2.657219e-04
7.379372e-04
3.005951e-03
1.910226e-02
1.782533e-01
9.999611e-01
9.922990e-01
1.610927e-01
1.797704e-02
2.957669e-03
7.408893e-04
2.623821e-04
1.200739e-04
6.652077e-05
4.288025e-05
3.373708e-05
2.784446e-05
2.532691e-05
2.514743e-05
2.702001e-05
3.122022e-05
3.872500e-05
5.188419e-05
7.656523e-05
1.291396e-04
2.648676e-04
7.209443e-04
2.872416e-03
1.771473e-02
1.550478e-01
8.926189e-01
7.776214e-01
1.136747e-01
1.381884e-02
2.455421e-03
6.609072e-04
2.487360e-04
1.193315e-04
6.844967e-05
4.522362e-05
3.370948e-05
2.795928e-05
2.552892e-05
2.541431e-05
2.733954e-05
3.159028e-05
3.912683e-05
5.228705e-05
7.683275e-05
1.288274e-04
2.619394e-04
7.040863e-04
2.754925e-03
1.659136e-02
1.415793e-01
8.444543e-01
7.854027e-01
1.216294e-01
1.487528e-02
2.618045e-03
6.949180e-04
2.579873e-04
1.223374e-04
6.948625e-05
4.555269e-05
3.501884e-05
2.917609e-05
2.666300e-05
2.648998e-05
2.838117e-05
3.257199e-05
3.993222e-05
5.256485e-05
7.551270e-05
1.224190e-04
2.363476e-04
5.846834e-04
1.988827e-03
9.381954e-03
5.152912e-02
1.812117e-01
1.578058e-01
3.925247e-02
7.336752e-03
1.689601e-03
5.348283e-04
2.228976e-04
1.140679e-04
6.814859e-05
4.619632e-05
3.496078e-05
2.924349e-05
2.679676e-05
2.666998e-05
2.860448e-05
3.283107e-05
4.021681e-05
5.280743e-05
7.555338e-05
1.217079e-04
2.328895e-04
5.686510e-04
1.898838e-03
8.746283e-03
4.697499e-02
1.662805e-01
1.537919e-01
4.039360e-02
7.701400e-03
1.773509e-03
5.569127e-04
2.298752e-04
1.165513e-04
6.908308e-05
4.651133e-05
3.538988e-05
2.981219e-05
2.737395e-05
2.720506e-05
2.903607e-05
3.305718e-05
4.000688e-05
5.158186e-05
7.176344e-05
1.106306e-04
1.972275e-04
4.278932e-04
1.169656e-03
3.877880e-03
1.279958e-02
2.761376e-02
2.513964e-02
1.036544e-02
3.136600e-03
1.009571e-03
3.952997e-04
1.878599e-04
1.042547e-04
6.552473e-05
4.583245e-05
3.535902e-05
2.989262e-05
2.752496e-05
2.740509e-05
2.926960e-05
3.331059e-05
4.024298e-05
5.174227e-05
7.167424e-05
1.098442e-04
1.941620e-04
4.162604e-04
1.119360e-03
3.639958e-03
1.183850e-02
2.571119e-02
2.426323e-02
1.041121e-02
3.221821e-03
1.043203e-03
4.073405e-04
1.923968e-04
1.060697e-04
6.623988e-05
4.608687e-05
3.510337e-05
2.993393e-05
2.763855e-05
2.747302e-05
2.919482e-05
3.294700e-05
3.929572e-05
4.955787e-05
6.664080e-05
9.743146e-05
1.594795e-04
3.010698e-04
6.579275e-04
1.561581e-03
3.407127e-03
5.348688e-03
5.014377e-03
2.914199e-03
1.318254e-03
5.823377e-04
2.821088e-04
1.534427e-04
9.272292e-05
6.150351e-05
4.451032e-05
3.505481e-05
2.998080e-05
2.773977e-05
2.761247e-05
2.935944e-05
3.311637e-05
3.944043e-05
4.960387e-05
6.644678e-05
9.661089e-05
1.569754e-04
2.933878e-04
6.330925e-04
1.482317e-03
3.206079e-03
5.057383e-03
4.842800e-03
2.890891e-03
1.333374e-03
5.941286e-04
2.880825e-04
1.562496e-04
9.399827e-05
6.206994e-05
4.472601e-05
3.431275e-05
2.963655e-05
2.751838e-05
2.735514e-05
2.893943e-05
3.235536e-05
3.803452e-05
4.693453e-05
6.108458e-05
8.487411e-05
1.281009e-04
2.125213e-04
3.812039e-04
6.887552e-04
1.109320e-03
1.414357e-03
1.352940e-03
9.905692e-04
6.048207e-04
3.460345e-04
2.018037e-04
1.242106e-04
8.137152e-05
5.689464e-05
4.260112e-05
3.426427e-05
2.965147e-05
2.757031e-05
2.742663e-05
2.902482e-05
3.244413e-05
3.809834e-05
4.691228e-05
6.083649e-05
8.411458e-05
1.261473e-04
2.076533e-04
3.691516e-04
6.614297e-04
1.060494e-03
1.356196e-03
1.312504e-03
9.772676e-04
6.057416e-04
3.496834e-04
2.045920e-04
1.258549e-04
8.224941e-05
5.731722e-05
4.278157e-05
3.313046e-05
2.894926e-05
2.701389e-05
2.684855e-05
2.826531e-05
3.133082e-05
3.635028e-05
4.398914e-05
5.558096e-05
7.375022e-05
1.035803e-04
1.537573e-04
2.347039e-04
3.450317e-04
4.503351e-04
5.024689e-04
4.873706e-04
4.152630e-04
3.129659e-04
2.177355e-04
1.475834e-04
1.009703e-04
7.108361e-05
5.217239e-05
4.033174e-05
3.311581e-05
2.899787e-05
2.710296e-05
2.696692e-05
2.839275e-05
3.144601e-05
3.641559e-05
4.395280e-05
5.534657e-05
7.314174e-05
1.022122e-04
1.508704e-04
2.289422e-04
3.349775e-04
4.363770e-04
4.875558e-04
4.754256e-04
4.088770e-04
3.114399e-04
2.184075e-04
1.486453e-04
1.017885e-04
7.158490e-05
5.243454e-05
4.044146e-05
3.155547e-05
2.789377e-05
2.615845e-05
2.598813e-05
2.724305e-05
2.994879e-05
3.431058e-05
4.078840e-05
5.021797e-05
6.408498e-05
8.467814e-05
1.146992e-04
1.542222e-04
1.948333e-04
2.205947e-04
2.263020e-04
2.216256e-04
2.081653e-04
1.810751e-04
1.453536e-04
1.107391e-04
8.259593e-05
6.183109e-05
4.735547e-05
3.769804e-05
3.153059e-05
2.791432e-05
2.620894e-05
2.605468e-05
2.731483e-05
3.000231e-05
3.432297e-05
4.070544e-05
4.997497e-05
6.354261e-05
8.365039e-05
1.128491e-04
1.512357e-04
1.906885e-04
2.158613e-04
2.215616e-04
2.172438e-04
2.049491e-04
1.795358e-04
1.451101e-04
1.110453e-04
8.299714e-05
6.213070e-05
4.754264e-05
3.778450e-05
2.931376e-05
2.618332e-05
2.467349e-05
2.451695e-05
2.559142e-05
2.790718e-05
3.162355e-05
3.702594e-05
4.461156e-05
5.509959e-05
6.931023e-05
8.727094e-05
1.064328e-04
1.203646e-04
1.236972e-04
1.203172e-04
1.186474e-04
1.187637e-04
1.139422e-04
1.014009e-04
8.440742e-05
6.744172e-05
5.309595e-05
4.217277e-05
3.442276e-05
2.928049e-05
2.616341e-05
2.465984e-05
2.450102e-05
2.557222e-05
2.788417e-05
3.157107e-05
3.691647e-05
4.436304e-05
5.463320e-05
6.848344e-05
8.600649e-05
1.047183e-04
1.184581e-04
1.218597e-04
1.185427e-04
1.167678e-04
1.169996e-04
1.127606e-04
1.009213e-04
8.442129e-05
6.762728e-05
5.329978e-05
4.230507e-05
3.450387e-05
2.584081e-05
2.326508e-05
2.199286e-05
2.183783e-05
2.271212e-05
2.463317e-05
2.767021e-05
3.200937e-05
3.791293e-05
4.564571e-05
5.520523e-05
6.567784e-05
7.438632e-05
7.764873e-05
7.462232e-05
7.017188e-05
6.959999e-05
7.271029e-05
7.467720e-05
7.158670e-05
6.369389e-05
5.362922e-05
4.393880e-05
3.593359e-05
2.995139e-05
2.583962e-05
2.329780e-05
2.204310e-05
2.190392e-05
2.277448e-05
2.467142e-05
2.766807e-05
3.192835e-05
3.773086e-05
4.531095e-05
5.469790e-05
6.498124e-05
7.359867e-05
7.689890e-05
7.400647e-05
6.949968e-05
6.871392e-05
7.165264e-05
7.374548e-05
7.101281e-05
6.344691e-05
5.359786e-05
4.397179e-05
3.598440e-05
2.997163e-05
2.056845e-05
1.865186e-05
1.768192e-05
1.754958e-05
1.820281e-05
1.963202e-05
2.190631e-05
2.511293e-05
2.934441e-05
3.463962e-05
4.068330e-05
4.641110e-05
4.979688e-05
4.903982e-05
4.501519e-05
4.135425e-05
4.120896e-05
4.435454e-05
4.774458e-05
4.824606e-05
4.501449e-05
3.942382e-05
3.328788e-05
2.783625e-05
2.359005e-05
2.057823e-05
1.867987e-05
1.773654e-05
1.761486e-05
1.826952e-05
1.967563e-05
2.190271e-05
2.504701e-05
2.920188e-05
3.440836e-05
4.036379e-05
4.602920e-05
4.942889e-05
4.877668e-05
4.482039e-05
4.111758e-05
4.076920e-05
4.373560e-05
4.709636e-05
4.775645e-05
4.474833e-05
3.931531e-05
3.326676e-05
2.784146e-05
2.359949e-05
1.361554e-05
1.242735e-05
1.182946e-05
1.175249e-05
1.216270e-05
1.305412e-05
1.445626e-05
1.642134e-05
1.900632e-05
2.213952e-05
2.549517e-05
2.823750e-05
2.917574e-05
2.759078e-05
2.450043e-05
2.215984e-05
2.213797e-05
2.428611e-05
2.698067e-05
2.826099e-05
2.725576e-05
2.452813e-05
2.116088e-05
1.801171e-05
1.545147e-05
1.359420e-05
1.238630e-05
1.176339e-05
1.166492e-05
1.206626e-05
1.297110e-05
1.438760e-05
1.635874e-05
1.889827e-05
2.195761e-05
2.520109e-05
2.788335e-05
2.883095e-05
2.735642e-05
2.436625e-05
2.203753e-05
2.193906e-05
2.398852e-05
2.667130e-05
2.803655e-05
2.717199e-05
2.453414e-05
2.121235e-05
1.804843e-05
1.547961e-05
6.523737e-06
5.957108e-06
5.666239e-06
5.623234e-06
5.801176e-06
6.225018e-06
6.890448e-06
7.814430e-06
8.981891e-06
1.034118e-05
1.171300e-05
1.270434e-05
1.277312e-05
1.177940e-05
1.023756e-05
9.194253e-06
9.213938e-06
1.025700e-05
1.165914e-05
1.249099e-05
1.232686e-05
1.129001e-05
9.884597e-06
8.487601e-06
7.335409e-06
6.490300e-06
5.948601e-06
5.668320e-06
5.643341e-06
5.820215e-06
6.220821e-06
6.859122e-06
7.737502e-06
8.890376e-06
1.023011e-05
1.162186e-05
1.262414e-05
1.274629e-05
1.177167e-05
1.025658e-05
9.166502e-06
9.134045e-06
1.010188e-05
1.146393e-05
1.232330e-05
1.219810e-05
1.123927e-05
9.860514e-06
8.510869e-06
7.357378e-06
1.682615e-06
1.549975e-06
1.473346e-06
1.455511e-06
1.513431e-06
1.614277e-06
1.778337e-06
2.003457e-06
2.298523e-06
2.651831e-06
2.991495e-06
3.211077e-06
3.198655e-06
2.881248e-06
2.500010e-06
2.215215e-06
2.236523e-06
2.512071e-06
2.881451e-06
3.168041e-06
3.165014e-06
2.947840e-06
2.602797e-06
2.266434e-06
1.982644e-06
1.765616e-06
1.621816e-06
1.555453e-06
1.529383e-06
1.590692e-06
1.700863e-06
1.865946e-06
2.106108e-06