# vtk DataFile Version 3.0
Tensor
ASCII
DATASET UNSTRUCTURED_GRID
POINTS 1650 float
0.000087556026434 0.000000000000000 0.000000000000000
0.000086865621014 0.000010973679911 0.000000000000000
0.000084805292859 0.000021774298334 0.000000000000000
0.000081407534576 0.000032231523066 0.000000000000000
0.000076725930842 0.000042180437424 0.000000000000000
0.000070834313345 0.000051464141087 0.000000000000000
0.000063825596412 0.000059936224502 0.000000000000000
0.000055810311696 0.000067463077852 0.000000000000000
0.000046914865025 0.000073925998164 0.000000000000000
0.000037279542907 0.000079223061324 0.000000000000000
0.000027056300128 0.000083270729481 0.000000000000000
0.000016406363333 0.000086005168491 0.000000000000000
0.000005497688388 0.000087383254616 0.000000000000000
-0.000005497688388 0.000087383254616 0.000000000000000
-0.000016406363333 0.000086005168491 0.000000000000000
-0.000027056300128 0.000083270729481 0.000000000000000
-0.000037279542907 0.000079223061324 0.000000000000000
-0.000046914865025 0.000073925998164 0.000000000000000
-0.000055810311696 0.000067463077852 0.000000000000000
-0.000063825596412 0.000059936224502 0.000000000000000
-0.000070834313345 0.000051464141087 0.000000000000000
-0.000076725930842 0.000042180437424 0.000000000000000
-0.000081407534576 0.000032231523066 0.000000000000000
-0.000084805292859 0.000021774298334 0.000000000000000
-0.000086865621014 0.000010973679911 0.000000000000000
-0.000087556026434 0.000000000000000 0.000000000000000
-0.000086865621014 -0.000010973679911 0.000000000000000
-0.000084805292859 -0.000021774298334 0.000000000000000
-0.000081407534576 -0.000032231523066 0.000000000000000
-0.000076725930842 -0.000042180437424 0.000000000000000
-0.000070834313345 -0.000051464141087 0.000000000000000
-0.000063825596412 -0.000059936224502 0.000000000000000
-0.000055810311696 -0.000067463077852 0.000000000000000
-0.000046914865025 -0.000073925998164 0.000000000000000
-0.000037279542907 -0.000079223061324 0.000000000000000
-0.000027056300128 -0.000083270729481 0.000000000000000
-0.000016406363333 -0.000086005168491 0.000000000000000
-0.000005497688388 -0.000087383254616 0.000000000000000
0.000005497688388 -0.000087383254616 0.000000000000000
0.000016406363333 -0.000086005168491 0.000000000000000
0.000027056300128 -0.000083270729481 0.000000000000000
0.000037279542907 -0.000079223061324 0.000000000000000
0.000046914865025 -0.000073925998164 0.000000000000000
0.000055810311696 -0.000067463077852 0.000000000000000
0.000063825596412 -0.000059936224502 0.000000000000000
0.000070834313345 -0.000051464141087 0.000000000000000
0.000076725930842 -0.000042180437424 0.000000000000000
0.000081407534576 -0.000032231523066 0.000000000000000
0.000084805292859 -0.000021774298334 0.000000000000000
0.000086865621014 -0.000010973679911 0.000000000000000
0.003371443549894 0.000000000000000 0.000000000000000
0.003344858710501 0.000422553921888 0.000000000000000
0.003265523451123 0.000838443916006 0.000000000000000
0.003134688936191 0.001241111148706 0.000000000000000
0.002954418504162 0.001624205317188 0.000000000000000
0.002727555127440 0.001981684797564 0.000000000000000
0.002457676576995 0.002307911924882 0.000000000000000
0.002149038998786 0.002597741902464 0.000000000000000
0.001806509791792 0.002846603938429 0.000000000000000
0.001435490846225 0.003050573329806 0.000000000000000
0.001041833352493 0.003206433357448 0.000000000000000
0.000631745524431 0.003311726015612 0.000000000000000
0.000211694692062 0.003364790776181 0.000000000000000
-0.000211694692062 0.003364790776181 0.000000000000000
-0.000631745524431 0.003311726015612 0.000000000000000
-0.001041833352493 0.003206433357448 0.000000000000000
-0.001435490846225 0.003050573329806 0.000000000000000
-0.001806509791792 0.002846603938429 0.000000000000000
-0.002149038998786 0.002597741902464 0.000000000000000
-0.002457676576995 0.002307911924882 0.000000000000000
-0.002727555127440 0.001981684797564 0.000000000000000
-0.002954418504162 0.001624205317188 0.000000000000000
-0.003134688936191 0.001241111148706 0.000000000000000
-0.003265523451123 0.000838443916006 0.000000000000000
-0.003344858710501 0.000422553921888 0.000000000000000
-0.003371443549894 0.000000000000000 0.000000000000000
-0.003344858710501 -0.000422553921888 0.000000000000000
-0.003265523451123 -0.000838443916006 0.000000000000000
-0.003134688936191 -0.001241111148706 0.000000000000000
-0.002954418504162 -0.001624205317188 0.000000000000000
-0.002727555127440 -0.001981684797564 0.000000000000000
-0.002457676576995 -0.002307911924882 0.000000000000000
-0.002149038998786 -0.002597741902464 0.000000000000000
-0.001806509791792 -0.002846603938429 0.000000000000000
-0.001435490846225 -0.003050573329806 0.000000000000000
-0.001041833352493 -0.003206433357448 0.000000000000000
-0.000631745524431 -0.003311726015612 0.000000000000000
-0.000211694692062 -0.003364790776181 0.000000000000000
0.000211694692062 -0.003364790776181 0.000000000000000
0.000631745524431 -0.003311726015612 0.000000000000000
0.001041833352493 -0.003206433357448 0.000000000000000
0.001435490846225 -0.003050573329806 0.000000000000000
0.001806509791792 -0.002846603938429 0.000000000000000
0.002149038998786 -0.002597741902464 0.000000000000000
0.002457676576995 -0.002307911924882 0.000000000000000
0.002727555127440 -0.001981684797564 0.000000000000000
0.002954418504162 -0.001624205317188 0.000000000000000
0.003134688936191 -0.001241111148706 0.000000000000000
0.003265523451123 -0.000838443916006 0.000000000000000
0.003344858710501 -0.000422553921888 0.000000000000000
0.011400754268046 0.000000000000000 0.000000000000000
0.011310855915403 0.001428893397486 0.000000000000000
0.011042578608195 0.002835252292515 0.000000000000000
0.010600153239820 0.004196897565192 0.000000000000000
0.009990557122628 0.005492355256162 0.000000000000000
0.009223403951542 0.006701195223768 0.000000000000000
0.008310792190347 0.007804353339595 0.000000000000000
0.007267114271682 0.008784432141162 0.000000000000000
0.006108829619790 0.009625975200298 0.000000000000000
0.004854205075556 0.010315710880246 0.000000000000000
0.003523026817519 0.010842761637305 0.000000000000000
0.002136288322015 0.011198815566193 0.000000000000000
0.000715859283517 0.011378257483753 0.000000000000000
-0.000715859283517 0.011378257483753 0.000000000000000
-0.002136288322015 0.011198815566193 0.000000000000000
-0.003523026817519 0.010842761637305 0.000000000000000
-0.004854205075556 0.010315710880246 0.000000000000000
-0.006108829619790 0.009625975200298 0.000000000000000
-0.007267114271682 0.008784432141162 0.000000000000000
-0.008310792190347 0.007804353339595 0.000000000000000
-0.009223403951542 0.006701195223768 0.000000000000000
-0.009990557122628 0.005492355256162 0.000000000000000
-0.010600153239820 0.004196897565192 0.000000000000000
-0.011042578608195 0.002835252292515 0.000000000000000
-0.011310855915403 0.001428893397486 0.000000000000000
-0.011400754268046 0.000000000000000 0.000000000000000
-0.011310855915403 -0.001428893397486 0.000000000000000
-0.011042578608195 -0.002835252292515 0.000000000000000
-0.010600153239820 -0.004196897565192 0.000000000000000
-0.009990557122628 -0.005492355256162 0.000000000000000
-0.009223403951542 -0.006701195223768 0.000000000000000
-0.008310792190347 -0.007804353339595 0.000000000000000
-0.007267114271682 -0.008784432141162 0.000000000000000
-0.006108829619790 -0.009625975200298 0.000000000000000
-0.004854205075556 -0.010315710880246 0.000000000000000
-0.003523026817519 -0.010842761637305 0.000000000000000
-0.002136288322015 -0.011198815566193 0.000000000000000
-0.000715859283517 -0.011378257483753 0.000000000000000
0.000715859283517 -0.011378257483753 0.000000000000000
0.002136288322015 -0.011198815566193 0.000000000000000
0.003523026817519 -0.010842761637305 0.000000000000000
0.004854205075556 -0.010315710880246 0.000000000000000
0.006108829619790 -0.009625975200298 0.000000000000000
0.007267114271682 -0.008784432141162 0.000000000000000
0.008310792190347 -0.007804353339595 0.000000000000000
0.009223403951542 -0.006701195223768 0.000000000000000
0.009990557122628 -0.005492355256162 0.000000000000000
0.010600153239820 -0.004196897565192 0.000000000000000
0.011042578608195 -0.002835252292515 0.000000000000000
0.011310855915403 -0.001428893397486 0.000000000000000
0.024099019329368 0.000000000000000 0.000000000000000
0.023908991363928 0.003020408018278 0.000000000000000
0.023341904322139 0.005993182397804 0.000000000000000
0.022406701505413 0.008871440710763 0.000000000000000
0.021118131620831 0.011609791104171 0.000000000000000
0.019496516185229 0.014165048156514 0.000000000000000
0.017567429042731 0.016496913937638 0.000000000000000
0.015361293049956 0.018568613531188 0.000000000000000
0.012912900289392 0.020347474996998 0.000000000000000
0.010260863377471 0.021805444627114 0.000000000000000
0.007447006520545 0.022919529369518 0.000000000000000
0.004515705922164 0.023672159442302 0.000000000000000
0.001513189943838 0.024051465419619 0.000000000000000
-0.001513189943838 0.024051465419619 0.000000000000000
-0.004515705922164 0.023672159442302 0.000000000000000
-0.007447006520545 0.022919529369518 0.000000000000000
-0.010260863377471 0.021805444627114 0.000000000000000
-0.012912900289392 0.020347474996998 0.000000000000000
-0.015361293049956 0.018568613531188 0.000000000000000
-0.017567429042731 0.016496913937638 0.000000000000000
-0.019496516185229 0.014165048156514 0.000000000000000
-0.021118131620831 0.011609791104171 0.000000000000000
-0.022406701505413 0.008871440710763 0.000000000000000
-0.023341904322139 0.005993182397804 0.000000000000000
-0.023908991363928 0.003020408018278 0.000000000000000
-0.024099019329368 0.000000000000000 0.000000000000000
-0.023908991363928 -0.003020408018278 0.000000000000000
-0.023341904322139 -0.005993182397804 0.000000000000000
-0.022406701505413 -0.008871440710763 0.000000000000000
-0.021118131620831 -0.011609791104171 0.000000000000000
[...]
POINT_DATA 1650

SCALARS beta float 1
LOOKUP_TABLE default
6.305671e-03
6.305682e-03
6.305688e-03
6.305690e-03
6.305688e-03
6.305682e-03
6.305671e-03
6.305656e-03
6.305637e-03
6.305613e-03
6.305586e-03
6.305555e-03
6.305522e-03
6.305485e-03
6.305447e-03
6.305407e-03
6.305366e-03
6.305325e-03
6.305284e-03
6.305246e-03
6.305209e-03
6.305175e-03
6.305144e-03
6.305118e-03
6.305097e-03
6.305080e-03
6.305069e-03
6.305063e-03
6.305063e-03
6.305069e-03
6.305080e-03
6.305096e-03
6.305117e-03
6.305143e-03
6.305172e-03
6.305204e-03
6.305238e-03
6.305275e-03
6.305313e-03
6.305351e-03
6.305390e-03
6.305427e-03
6.305464e-03
6.305499e-03
6.305533e-03
6.305563e-03
6.305592e-03
6.305617e-03
6.305638e-03
6.305657e-03
6.308584e-03
6.308523e-03
6.309385e-03
6.311127e-03
6.313640e-03
6.316760e-03
6.320274e-03
6.323937e-03
6.327486e-03
6.330656e-03
6.333199e-03
6.334900e-03
6.335594e-03
6.335171e-03
6.333591e-03
6.330884e-03
6.327151e-03
6.322556e-03
6.317318e-03
6.311700e-03
6.305988e-03
6.300482e-03
6.295468e-03
6.291212e-03
6.287935e-03
6.285807e-03
6.284931e-03
6.285344e-03
6.287009e-03
6.289822e-03
6.293614e-03
6.298165e-03
6.303215e-03
6.308482e-03
6.313675e-03
6.318516e-03
6.322753e-03
6.326179e-03
6.328641e-03
6.330051e-03
6.330388e-03
6.329703e-03
6.328111e-03
6.325782e-03
6.322932e-03
6.319807e-03
6.316663e-03
6.313756e-03
6.311318e-03
6.309545e-03
6.251460e-03
6.247255e-03
6.254974e-03
6.274179e-03
6.303722e-03
6.341802e-03
6.386051e-03
6.433659e-03
6.481531e-03
6.526473e-03
6.565407e-03
6.595580e-03
6.614771e-03
6.621464e-03
6.614969e-03
6.595485e-03
6.564080e-03
6.522614e-03
6.473589e-03
6.419972e-03
6.364974e-03
6.311843e-03
6.263661e-03
6.223168e-03
6.192624e-03
6.173696e-03
6.167396e-03
6.174029e-03
6.193193e-03
6.223789e-03
6.264073e-03
6.311731e-03
6.363994e-03
6.417777e-03
6.469859e-03
6.517079e-03
6.556553e-03
6.585872e-03
6.603290e-03
6.607857e-03
6.599495e-03
6.579007e-03
6.548008e-03
6.508799e-03
6.464186e-03
6.417275e-03
6.371250e-03
6.329165e-03
6.293758e-03
6.267296e-03
5.988085e-03
5.966181e-03
5.996109e-03
6.076436e-03
6.203428e-03
6.370944e-03
6.570341e-03
6.790481e-03
7.017982e-03
7.237791e-03
7.434164e-03
7.591987e-03
7.698314e-03
7.743863e-03
7.724196e-03
7.640320e-03
7.498581e-03
7.309848e-03
7.088189e-03
6.849290e-03
6.608933e-03
6.381739e-03
6.180317e-03
6.014823e-03
5.892854e-03
5.819551e-03
5.797792e-03
5.828350e-03
5.909966e-03
6.039298e-03
6.210791e-03
6.416507e-03
6.646053e-03
6.886706e-03
7.123862e-03
7.341884e-03
7.525328e-03
7.660448e-03
7.736750e-03
7.748302e-03
7.694545e-03
7.580397e-03
7.415635e-03
7.213687e-03
6.990080e-03
6.760862e-03
6.541226e-03
6.344522e-03
6.181679e-03
6.060979e-03
5.356876e-03
5.296452e-03
5.369465e-03
5.574644e-03
5.909524e-03
6.368594e-03
6.940489e-03
7.604703e-03
8.328669e-03
9.066366e-03
9.759784e-03
1.034420e-02
1.075717e-02
1.094969e-02
1.089637e-02
1.060134e-02
1.009766e-02
9.440271e-03
8.695023e-03
7.927319e-03
7.193372e-03
6.535616e-03
5.982112e-03
5.548735e-03
5.242691e-03
5.066091e-03
5.018836e-03
5.100399e-03
5.310395e-03
5.647917e-03
6.109724e-03
6.687447e-03
7.364196e-03
8.111296e-03
8.886242e-03
9.633239e-03
1.028749e-02
1.078351e-02
1.106621e-02
1.110205e-02
1.088659e-02
1.044581e-02
9.830565e-03
9.106200e-03
8.340687e-03
7.594798e-03
6.916225e-03
6.337928e-03
5.879701e-03
5.551458e-03
4.302970e-03
4.197144e-03
4.326266e-03
4.695936e-03
5.325904e-03
6.244792e-03
7.480438e-03
9.044608e-03
1.091198e-02
1.299662e-02
1.513441e-02
1.708516e-02
1.856697e-02
1.932384e-02
1.920554e-02
1.822262e-02
1.654566e-02
1.444770e-02
1.222089e-02
1.010622e-02
8.259469e-03
6.752313e-03
5.594211e-03
4.759462e-03
4.209992e-03
3.910742e-03
3.838324e-03
3.984886e-03
4.358807e-03
4.982940e-03
5.890047e-03
7.114176e-03
8.676431e-03
1.056448e-02
1.270808e-02
1.495816e-02
1.708285e-02
1.879465e-02
1.981381e-02
1.995123e-02
1.917504e-02
1.762456e-02
1.556290e-02
1.329356e-02
1.108231e-02
9.112589e-03
7.479105e-03
6.206513e-03
5.276840e-03
4.654306e-03
2.989279e-03
2.866192e-03
3.041908e-03
3.540429e-03
4.438064e-03
5.863406e-03
7.992605e-03
1.102837e-02
1.514506e-02
2.038174e-02
2.648504e-02
3.276030e-02
3.806771e-02
4.111013e-02
4.098319e-02
3.766438e-02
3.204821e-02
2.548439e-02
1.918590e-02
1.388698e-02
9.830648e-03
6.936083e-03
4.981986e-03
3.729896e-03
2.983548e-03
2.607042e-03
2.524142e-03
2.712708e-03
3.200857e-03
4.066660e-03
5.439738e-03
7.499308e-03
1.045773e-02
1.451214e-02
1.974444e-02
2.596567e-02
3.255170e-02
3.839797e-02
4.215407e-02
4.275733e-02
3.998419e-02
3.459498e-02
2.793685e-02
2.132448e-02
1.562197e-02
1.117211e-02
7.946735e-03
5.739884e-03
4.307707e-03
3.440711e-03
1.763384e-03
1.661749e-03
1.847668e-03
2.369265e-03
3.374173e-03
5.138052e-03
8.112053e-03
1.297384e-02
2.063195e-02
3.206186e-02
4.776807e-02
6.673838e-02
8.533201e-02
9.757954e-02
9.821690e-02
8.667325e-02
6.769088e-02
4.770867e-02
3.108832e-02
1.919393e-02
1.149197e-02
6.829855e-03
4.137435e-03
2.641406e-03
1.852357e-03
1.490814e-03
1.420492e-03
1.606661e-03
2.100053e-03
3.043903e-03
4.703004e-03
7.512588e-03
1.213434e-02
1.947516e-02
3.055728e-02
4.604049e-02
6.522527e-02
8.484911e-02
9.903069e-02
1.019342e-01
9.199311e-02
7.334453e-02
5.262846e-02
3.482219e-02
2.178749e-02
1.320342e-02
7.935220e-03
4.855266e-03
3.123640e-03
2.198090e-03
9.023951e-04
8.359744e-04
9.918305e-04
1.433644e-03
2.354153e-03
4.146983e-03
7.554850e-03
1.392971e-02
2.561906e-02
4.632495e-02
8.070748e-02
1.313759e-01
1.915089e-01
2.384677e-01
2.446389e-01
2.047056e-01
1.426284e-01
8.628660e-02
4.743899e-02
2.460225e-02
1.237141e-02
6.170505e-03
3.131730e-03
1.680165e-03
1.011211e-03
7.375512e-04
6.940393e-04
8.450637e-04
1.255287e-03
2.107562e-03
3.772041e-03
6.948892e-03
1.292101e-02
2.393793e-02
4.361285e-02
7.670617e-02
1.265637e-01
1.881206e-01
2.403416e-01
2.539951e-01
2.189611e-01
1.565726e-01
9.667562e-02
5.400056e-02
2.838536e-02
1.445984e-02
7.308866e-03
3.760200e-03
2.042750e-03
1.239462e-03
4.200489e-04
3.838909e-04
4.950833e-04
8.182748e-04
1.547434e-03
3.109231e-03
6.404273e-03
1.332965e-02
2.786113e-02
5.807670e-02
1.188129e-01
2.300797e-01
3.943143e-01
5.474023e-01
5.788770e-01
4.584836e-01
2.788976e-01
1.411789e-01
6.463689e-02
2.820537e-02
1.205207e-02
5.122575e-03
2.204412e-03
9.952597e-04
5.079633e-04
3.312226e-04
3.094983e-04
4.148490e-04
7.118135e-04
1.383529e-03
2.829664e-03
5.893611e-03
1.235430e-02
2.594925e-02
5.432185e-02
1.117718e-01
2.187479e-01
3.822445e-01
5.462701e-01
5.980151e-01
4.916876e-01
3.089367e-01
1.598683e-01
7.428488e-02
3.281472e-02
1.420322e-02
6.129746e-03
2.686652e-03
1.237948e-03
6.427414e-04
1.923338e-04
1.748551e-04
2.476404e-04
4.655347e-04
9.928501e-04
2.212575e-03
5.001379e-03
1.140802e-02
2.631513e-02
6.151288e-02
1.446918e-01
3.305114e-01
6.602905e-01
9.502323e-01
9.910948e-01
8.344988e-01
4.629802e-01
1.968409e-01
7.596396e-02
2.854169e-02
1.066658e-02
3.985639e-03
1.499487e-03
5.841958e-04
2.561096e-04
1.496784e-04
1.398293e-04
2.076171e-04
4.069100e-04
8.925789e-04
2.023809e-03
4.621939e-03
1.060247e-02
2.452452e-02
5.739578e-02
1.352297e-01
3.108507e-01
6.332027e-01
9.423763e-01
9.964586e-01
8.777013e-01
5.116066e-01
2.228154e-01
8.704271e-02
3.301837e-02
1.247639e-02
4.731683e-03
1.816791e-03
7.264202e-04
3.266906e-04
9.991991e-05
9.118672e-05
1.379519e-04
2.804501e-04
6.418580e-04
1.522605e-03
3.645856e-03
8.822933e-03
2.169383e-02
5.463505e-02
1.412650e-01
3.642023e-01
8.114712e-01
8.769740e-01
3.829256e-01
9.998602e-01
5.949888e-01
2.217072e-01
7.516721e-02
2.530617e-02
8.590634e-03
2.932910e-03
1.008703e-03
3.579557e-04
1.430489e-04
7.852117e-05
7.405872e-05
1.177808e-04
2.492084e-04
5.844515e-04
1.405539e-03
3.393458e-03
8.246696e-03
2.031762e-02
5.115477e-02
1.321077e-01
3.412173e-01
7.757705e-01
9.168895e-01
3.173166e-01
9.885954e-01
6.503116e-01
2.494445e-01
8.560209e-02
2.910484e-02
9.994680e-03
3.465064e-03
1.215970e-03
4.424399e-04
1.811589e-04
6.605554e-05
6.113837e-05
9.254230e-05
1.868458e-04
4.281176e-04
1.028182e-03
2.510005e-03
6.238094e-03
1.579154e-02
4.105444e-02
1.101805e-01
2.987987e-01
7.275990e-01
9.449248e-01
4.111314e-01
1.000000e+00
5.643672e-01
1.964671e-01
6.256874e-02
1.988488e-02
6.407701e-03
2.088570e-03
6.933039e-04
2.416918e-04
9.721752e-05
5.468548e-05
5.222869e-05
8.190968e-05
1.699836e-04
3.958261e-04
9.584275e-04
2.355474e-03
5.866067e-03
1.487972e-02
3.864302e-02
1.034519e-01
2.801482e-01
6.899127e-01
9.750472e-01
4.307080e-01
9.960619e-01
6.071421e-01
2.172865e-01
7.008970e-02
2.251980e-02
7.334543e-03
2.423175e-03
8.169923e-04
2.896652e-04
1.179753e-04
5.612419e-05
5.279398e-05
7.482497e-05
1.387418e-04
2.973894e-04
6.864550e-04
1.647676e-03
4.068889e-03
1.026560e-02
2.650913e-02
6.991077e-02
1.848370e-01
4.543460e-01
8.385407e-01
9.721034e-01
7.958394e-01
3.854349e-01
1.364227e-01
4.388560e-02
1.387643e-02
4.424723e-03
1.438217e-03
4.865330e-04
1.794714e-04
7.960501e-05
4.926414e-05
4.762333e-05
6.885427e-05
1.294698e-04
2.795404e-04
6.466477e-04
1.559204e-03
3.850412e-03
9.736336e-03
2.511723e-02
6.609088e-02
1.742798e-01
4.288041e-01
8.083004e-01
9.639251e-01
8.078828e-01
4.068432e-01
1.478631e-01
4.833587e-02
1.549983e-02
4.997242e-03
1.643841e-03
5.615572e-04
2.083644e-04
9.213622e-05
5.496819e-05
5.242198e-05
6.813398e-05
1.118932e-04
2.150732e-04
4.576924e-04
1.043601e-03
2.479754e-03
6.060165e-03
1.503713e-02
3.746336e-02
9.152931e-02
2.066687e-01
3.796901e-01
4.804121e-01
3.806716e-01
1.958933e-01
7.664034e-02
2.642203e-02
8.711931e-03
2.860539e-03
9.672138e-04
3.498744e-04
1.439924e-04
7.347122e-05
5.071307e-05
4.919348e-05
6.464635e-05
1.066032e-04
2.049946e-04
4.361670e-04
9.938778e-04
2.363225e-03
5.776499e-03
1.433092e-02
3.564822e-02
8.683620e-02
1.957850e-01
3.618252e-01
4.664201e-01
3.804620e-01
2.021369e-01
8.117559e-02
2.854032e-02
9.550533e-03
3.173352e-03
1.081633e-03
3.925635e-04
1.609474e-04
8.110902e-05
5.599569e-05
5.373493e-05
6.486661e-05
9.462431e-05
1.610282e-04
3.091698e-04
6.485276e-04
1.443958e-03
3.323950e-03
7.720840e-03
1.773664e-02
3.911839e-02
7.868280e-02
1.320223e-01
1.642093e-01
1.391864e-01
8.158750e-02
3.656611e-02
1.400077e-02
4.982565e-03
1.748719e-03
6.373728e-04
2.554973e-04
1.201234e-04
7.031756e-05
5.314448e-05
5.162200e-05
6.272109e-05
9.154906e-05
1.553832e-04
2.976305e-04
6.223744e-04
1.385056e-03
3.185857e-03
7.399196e-03
1.697963e-02
3.735838e-02
7.501288e-02
1.261339e-01
1.586724e-01
1.374423e-01
8.275209e-02
3.804291e-02
1.488239e-02
5.382013e-03
1.911499e-03
7.004521e-04
2.804447e-04
1.306556e-04
7.532787e-05
5.610507e-05
5.405889e-05
6.170394e-05
8.192266e-05
1.245052e-04
2.140504e-04
4.063499e-04
8.280919e-04
1.752420e-03
3.739422e-03
7.800876e-03
1.545820e-02
2.785232e-02
4.279838e-02
5.182069e-02
4.644883e-02
3.066078e-02
1.571568e-02
6.794636e-03
2.680389e-03
1.036451e-03
4.198818e-04
1.905284e-04
1.022362e-04
6.716331e-05
5.422032e-05
5.270254e-05
6.032769e-05
8.006859e-05
1.213831e-04
2.077079e-04
3.933174e-04
7.987015e-04
1.689364e-03
3.600487e-03
7.501196e-03
1.483826e-02
2.667749e-02
4.102933e-02
5.003416e-02
4.553329e-02
3.070643e-02
1.610648e-02
7.104550e-03
2.849658e-03
1.112466e-03
4.522735e-04
2.042946e-04
1.084906e-04
7.034757e-05
5.462599e-05
5.281171e-05
5.800658e-05
7.161572e-05
9.916711e-05
1.537092e-04
2.629484e-04
4.834112e-04
9.275281e-04
1.786912e-03
3.361668e-03
5.991108e-03
9.776026e-03
1.395450e-02
1.647714e-02
1.535246e-02
1.112582e-02
6.446995e-03
3.156687e-03
1.405882e-03
6.123482e-04
2.809525e-04
1.449594e-04
8.767931e-05
6.302715e-05
5.333712e-05
5.187922e-05
5.712546e-05
7.045173e-05
9.736263e-05
1.505407e-04
2.560570e-04
4.697860e-04
8.990867e-04
1.730229e-03
3.248783e-03
5.776490e-03
9.411519e-03
1.343289e-02
1.593161e-02
1.501244e-02
1.106717e-02
6.538330e-03
3.262802e-03
1.473848e-03
6.483353e-04
2.977345e-04
1.527877e-04
9.160138e-05
6.517799e-05
5.186562e-05
5.031648e-05
5.381074e-05
6.305218e-05
8.115396e-05
1.151076e-04
1.784842e-04
2.966135e-04
5.109287e-04
8.858466e-04
1.495289e-03
2.402674e-03
3.583959e-03
4.796709e-03
5.528781e-03
5.291068e-03
4.134465e-03
2.666946e-03
1.481147e-03
7.499302e-04
3.722499e-04
1.944182e-04
1.131637e-04
7.566558e-05
5.826617e-05
5.097409e-05
4.976760e-05
5.320338e-05
6.228655e-05
8.017936e-05
1.133535e-04
1.751456e-04
2.896711e-04
4.986847e-04
8.626429e-04
1.452040e-03
2.327961e-03
3.466146e-03
4.636807e-03
5.358915e-03
5.171100e-03
4.096533e-03
2.685904e-03
1.513985e-03
7.772460e-04
3.886421e-04
2.031760e-04
1.175660e-04
7.809168e-05
5.977293e-05
4.849084e-05
4.717883e-05
4.949563e-05
5.582762e-05
6.802103e-05
8.977213e-05
1.279903e-04
1.934858e-04
3.021737e-04
4.711164e-04
7.170262e-04
1.043977e-03
1.431864e-03
1.807320e-03
2.034769e-03
1.984586e-03
1.648778e-03
1.173106e-03
7.323825e-04
4.217496e-04
2.380447e-04
1.404091e-04
9.073605e-05
6.576644e-05
5.339240e-05
4.790436e-05
4.673186e-05
4.911540e-05
5.538523e-05
6.740662e-05
8.884207e-05
1.261193e-04
1.903438e-04
2.963102e-04
4.611491e-04
7.000885e-04
1.016380e-03
1.390943e-03
1.753548e-03
1.977466e-03
1.940319e-03
1.628383e-03
1.173059e-03
7.422827e-04
4.316149e-04
2.452991e-04
1.447173e-04
9.321264e-05
6.722558e-05
5.428273e-05
4.492257e-05
4.379865e-05
4.529693e-05
4.974616e-05
5.813038e-05
7.260627e-05
9.651336e-05
1.348456e-04
1.926997e-04
2.742026e-04
3.791793e-04
5.050869e-04
6.418860e-04
7.674268e-04
8.440932e-04
8.342805e-04
7.306811e-04
5.650130e-04
3.927757e-04
2.541471e-04
1.612590e-04
1.056362e-04
7.444808e-05
5.747994e-05
4.862759e-05
4.448003e-05
4.343609e-05
4.503760e-05
4.953441e-05
5.776706e-05
7.195701e-05
9.564908e-05
1.332670e-04
1.899892e-04
2.697074e-04
3.725256e-04
4.950668e-04
6.270141e-04
7.486910e-04
8.249355e-04
8.185926e-04
7.217894e-04
5.638949e-04
3.961788e-04
2.586500e-04
1.647109e-04
1.081102e-04
7.611088e-05
5.848334e-05
4.922326e-05
4.132954e-05
4.039599e-05
4.146353e-05
4.459197e-05
5.051256e-05
6.039757e-05
7.610833e-05
9.955227e-05
1.322636e-04
1.739902e-04
2.226024e-04
2.743995e-04
3.263326e-04
3.719934e-04
4.004979e-04
4.001410e-04
3.652027e-04
3.034079e-04
2.310934e-04
1.654390e-04
1.157443e-04
8.278241e-05
6.254037e-05
5.076505e-05
4.421937e-05
4.104255e-05
4.024064e-05
4.127899e-05
4.435927e-05
5.031537e-05
6.013438e-05
7.555192e-05
9.860978e-05
1.309661e-04
1.720769e-04
2.195145e-04
2.699609e-04
3.205572e-04
3.647637e-04
3.924020e-04
3.930987e-04
3.609227e-04
3.018880e-04
2.315469e-04
1.669767e-04
1.174469e-04
8.406306e-05
6.335512e-05
5.136619e-05
4.469601e-05
3.803111e-05
3.724479e-05
3.793055e-05
4.022150e-05
4.448550e-05
5.146866e-05
6.202990e-05
7.703795e-05
9.660717e-05
1.192107e-04
1.428390e-04
1.658040e-04
1.867426e-04
2.045539e-04
2.161523e-04
2.172145e-04
2.052885e-04
1.807537e-04
1.481562e-04
1.151364e-04
8.739730e-05
6.705084e-05
5.355116e-05
4.515638e-05
4.031083e-05
3.784450e-05
3.703545e-05
3.782207e-05
4.015492e-05
4.432004e-05
5.125716e-05
6.169985e-05
7.668088e-05
9.582509e-05
1.181248e-04
1.415006e-04
1.638872e-04
1.840235e-04
2.011690e-04
2.125648e-04
2.138322e-04
2.025134e-04
1.791824e-04
1.479881e-04
1.154401e-04
8.796780e-05
6.759303e-05
5.406410e-05
4.549971e-05
4.049288e-05
3.489081e-05
3.423861e-05
3.474846e-05
3.643527e-05
3.956035e-05
4.456839e-05
5.194915e-05
6.188561e-05
7.373750e-05
8.670038e-05
9.878506e-05
1.091061e-04
1.178879e-04
1.250581e-04
1.299848e-04
1.313365e-04
1.272859e-04
1.169521e-04
1.019413e-04
8.457372e-05
6.844376e-05
5.561035e-05
4.643454e-05
4.038389e-05
3.669189e-05
3.473546e-05
3.418910e-05
3.464160e-05
3.631742e-05
3.951764e-05
4.444787e-05
5.184184e-05
6.150357e-05
7.348981e-05
8.630959e-05
9.814061e-05
1.083129e-04
1.169021e-04
1.238231e-04
1.285030e-04
1.298582e-04
1.262276e-04
1.164130e-04
1.016200e-04
8.491023e-05
6.885572e-05
5.607959e-05
4.674790e-05
4.065164e-05
3.696658e-05
3.194358e-05
3.136560e-05
3.167352e-05
3.293324e-05
3.532329e-05
3.899499e-05
4.416008e-05
5.074070e-05
5.843266e-05
6.573988e-05
7.205200e-05
7.680849e-05
8.032062e-05
8.320070e-05
8.547046e-05
8.650096e-05
8.537562e-05
8.143010e-05
7.402006e-05
6.481163e-05
5.529482e-05
4.699978e-05
4.060210e-05
3.617611e-05
3.338414e-05
3.185105e-05
3.123492e-05
3.164254e-05
3.293056e-05
3.523398e-05
3.892381e-05
4.401698e-05
5.072667e-05
5.817100e-05
6.547135e-05
7.183588e-05
7.646414e-05
7.975306e-05
8.247524e-05
8.471595e-05
8.571240e-05
8.452548e-05
8.073544e-05
7.384750e-05
6.466963e-05
5.537111e-05
4.711474e-05
4.081534e-05
3.633909e-05
3.344194e-05
2.864629e-05
2.819123e-05
2.847481e-05
2.943183e-05
3.113209e-05
3.383820e-05
3.751360e-05
4.200515e-05
4.666567e-05
5.100819e-05
5.418431e-05
5.621123e-05
5.742501e-05
5.844646e-05
5.950346e-05
6.029636e-05
6.037744e-05
5.890260e-05
5.569627e-05
5.072121e-05
4.505906e-05
3.969215e-05
3.534937e-05
3.208951e-05
2.987393e-05
2.861582e-05
2.820836e-05
2.841966e-05
2.933926e-05
3.111591e-05
3.385725e-05
3.743027e-05
4.185457e-05
4.660658e-05
5.093489e-05
5.395075e-05
5.589183e-05
5.714284e-05
5.802944e-05
5.881116e-05
5.953159e-05
5.970720e-05
5.826497e-05
5.507009e-05
5.033868e-05
4.493100e-05
3.961292e-05
3.525324e-05
3.207966e-05
2.995265e-05
2.470513e-05
2.432839e-05
2.440815e-05
2.510781e-05
2.647980e-05
2.836283e-05
3.084414e-05
3.376357e-05
3.664052e-05
3.903805e-05
4.048674e-05
4.106442e-05
4.134854e-05
4.152661e-05
4.184070e-05
4.247825e-05
4.292657e-05
4.266382e-05
4.138571e-05
3.892880e-05
3.576819e-05
3.248613e-05
2.945745e-05
2.715930e-05
2.562585e-05
2.465106e-05
2.423232e-05
2.438142e-05
2.516632e-05
2.647352e-05
2.820479e-05
3.094037e-05
3.375190e-05
3.662597e-05
3.894801e-05
4.053456e-05
4.116797e-05
4.122543e-05
4.137235e-05
4.183076e-05
4.234589e-05
4.262643e-05
4.247905e-05
4.125574e-05
3.898048e-05
3.560469e-05
3.254966e-05
2.961058e-05
2.722137e-05
2.562418e-05
1.928190e-05
1.893992e-05
1.913096e-05
1.962410e-05
2.040428e-05
2.171890e-05
2.338730e-05
2.507433e-05
2.677186e-05
2.783665e-05
2.845027e-05
2.855517e-05
2.824022e-05
2.811140e-05
2.833491e-05
2.863305e-05
2.904321e-05
2.940605e-05
2.899967e-05
2.803024e-05
2.632081e-05
2.435948e-05
2.262764e-05
2.108875e-05
1.988182e-05
1.925354e-05
1.899553e-05
1.913221e-05
1.952097e-05
2.038022e-05
2.189699e-05
2.323302e-05
2.507983e-05
2.678132e-05
2.798200e-05
2.845736e-05
2.848913e-05
2.837919e-05
2.822340e-05
2.821965e-05
2.857856e-05
2.911785e-05
2.932845e-05
2.894921e-05
2.785667e-05
2.654012e-05
2.437084e-05
2.257875e-05
2.117041e-05
2.001189e-05
1.256658e-05
1.247691e-05
1.243103e-05
1.267952e-05
1.331414e-05
1.402426e-05
1.481059e-05
1.583245e-05
1.657430e-05
1.714898e-05
1.723810e-05
1.705350e-05
1.689812e-05
1.673884e-05
1.669469e-05
1.698245e-05
1.739759e-05
1.762497e-05
1.773942e-05
1.728763e-05
1.664134e-05
1.568048e-05
1.453979e-05
1.369182e-05
1.311880e-05
1.259254e-05
1.238259e-05
1.242149e-05
1.277374e-05
1.329565e-05
1.388407e-05
1.487572e-05
1.589834e-05
1.651124e-05
1.700892e-05
1.724647e-05
1.705375e-05
1.668786e-05
1.648451e-05
1.654204e-05
1.672536e-05
1.692011e-05
1.720328e-05
1.744669e-05
1.701354e-05
1.621107e-05
1.546348e-05
1.449856e-05
1.357551e-05
1.295051e-05
5.983211e-06
5.812279e-06
5.922484e-06
6.106219e-06
6.201712e-06
6.512563e-06
7.007632e-06
7.303675e-06
7.564599e-06
7.745375e-06
7.753543e-06
7.637990e-06
7.461992e-06
7.359104e-06
7.372549e-06
7.468724e-06
7.626265e-06
7.788977e-06
7.912542e-06
7.915188e-06
7.547381e-06
7.184957e-06
6.907410e-06
6.468215e-06
6.086793e-06
5.988375e-06
5.916451e-06
5.889484e-06
6.013566e-06
6.267368e-06
6.536021e-06
7.072648e-06
7.118692e-06
7.692459e-06
7.828268e-06
7.663382e-06
7.602498e-06
7.514947e-06
7.395110e-06
7.298141e-06
7.337587e-06
7.646571e-06
7.834084e-06
7.640052e-06
7.928704e-06
7.524843e-06
7.207739e-06
6.788222e-06
6.436645e-06
6.191389e-06
1.585120e-06
1.626121e-06
1.538077e-06
1.506094e-06
1.700256e-06
1.793444e-06
1.746476e-06
1.860746e-06
2.006548e-06
1.939102e-06
1.929363e-06
1.892639e-06
1.827008e-06
1.775062e-06
1.756980e-06
1.743051e-06
1.766497e-06
1.888830e-06
1.843445e-06
1.824027e-06
1.921720e-06
1.840741e-06
1.629148e-06
1.620464e-06
1.649061e-06
1.537973e-06
1.502311e-06
1.586677e-06
1.591900e-06
1.611785e-06
1.831308e-06
1.631930e-06
2.132452e-06