# vtk DataFile Version 3.0
Tensor
ASCII
DATASET UNSTRUCTURED_GRID
POINTS 1650 float
0.000087556026434 0.000000000000000 0.000000000000000
0.000086865621014 0.000010973679911 0.000000000000000
0.000084805292859 0.000021774298334 0.000000000000000
0.000081407534576 0.000032231523066 0.000000000000000
0.000076725930842 0.000042180437424 0.000000000000000
0.000070834313345 0.000051464141087 0.000000000000000
0.000063825596412 0.000059936224502 0.000000000000000
0.000055810311696 0.000067463077852 0.000000000000000
0.000046914865025 0.000073925998164 0.000000000000000
0.000037279542907 0.000079223061324 0.000000000000000
0.000027056300128 0.000083270729481 0.000000000000000
0.000016406363333 0.000086005168491 0.000000000000000
0.000005497688388 0.000087383254616 0.000000000000000
-0.000005497688388 0.000087383254616 0.000000000000000
-0.000016406363333 0.000086005168491 0.000000000000000
-0.000027056300128 0.000083270729481 0.000000000000000
-0.000037279542907 0.000079223061324 0.000000000000000
-0.000046914865025 0.000073925998164 0.000000000000000
-0.000055810311696 0.000067463077852 0.000000000000000
-0.000063825596412 0.000059936224502 0.000000000000000
-0.000070834313345 0.000051464141087 0.000000000000000
-0.000076725930842 0.000042180437424 0.000000000000000
-0.000081407534576 0.000032231523066 0.000000000000000
-0.000084805292859 0.000021774298334 0.000000000000000
-0.000086865621014 0.000010973679911 0.000000000000000
-0.000087556026434 0.000000000000000 0.000000000000000
-0.000086865621014 -0.000010973679911 0.000000000000000
-0.000084805292859 -0.000021774298334 0.000000000000000
-0.000081407534576 -0.000032231523066 0.000000000000000
-0.000076725930842 -0.000042180437424 0.000000000000000
-0.000070834313345 -0.000051464141087 0.000000000000000
-0.000063825596412 -0.000059936224502 0.000000000000000
-0.000055810311696 -0.000067463077852 0.000000000000000
-0.000046914865025 -0.000073925998164 0.000000000000000
-0.000037279542907 -0.000079223061324 0.000000000000000
-0.000027056300128 -0.000083270729481 0.000000000000000
-0.000016406363333 -0.000086005168491 0.000000000000000
-0.000005497688388 -0.000087383254616 0.000000000000000
0.000005497688388 -0.000087383254616 0.000000000000000
0.000016406363333 -0.000086005168491 0.000000000000000
0.000027056300128 -0.000083270729481 0.000000000000000
0.000037279542907 -0.000079223061324 0.000000000000000
0.000046914865025 -0.000073925998164 0.000000000000000
0.000055810311696 -0.000067463077852 0.000000000000000
0.000063825596412 -0.000059936224502 0.000000000000000
0.000070834313345 -0.000051464141087 0.000000000000000
0.000076725930842 -0.000042180437424 0.000000000000000
0.000081407534576 -0.000032231523066 0.000000000000000
0.000084805292859 -0.000021774298334 0.000000000000000
0.000086865621014 -0.000010973679911 0.000000000000000
0.003371443549894 0.000000000000000 0.000000000000000
0.003344858710501 0.000422553921888 0.000000000000000
0.003265523451123 0.000838443916006 0.000000000000000
0.003134688936191 0.001241111148706 0.000000000000000
0.002954418504162 0.001624205317188 0.000000000000000
0.002727555127440 0.001981684797564 0.000000000000000
0.002457676576995 0.002307911924882 0.000000000000000
0.002149038998786 0.002597741902464 0.000000000000000
0.001806509791792 0.002846603938429 0.000000000000000
0.001435490846225 0.003050573329806 0.000000000000000
0.001041833352493 0.003206433357448 0.000000000000000
0.000631745524431 0.003311726015612 0.000000000000000
0.000211694692062 0.003364790776181 0.000000000000000
-0.000211694692062 0.003364790776181 0.000000000000000
-0.000631745524431 0.003311726015612 0.000000000000000
-0.001041833352493 0.003206433357448 0.000000000000000
-0.001435490846225 0.003050573329806 0.000000000000000
-0.001806509791792 0.002846603938429 0.000000000000000
-0.002149038998786 0.002597741902464 0.000000000000000
-0.002457676576995 0.002307911924882 0.000000000000000
-0.002727555127440 0.001981684797564 0.000000000000000
-0.002954418504162 0.001624205317188 0.000000000000000
-0.003134688936191 0.001241111148706 0.000000000000000
-0.003265523451123 0.000838443916006 0.000000000000000
-0.003344858710501 0.000422553921888 0.000000000000000
-0.003371443549894 0.000000000000000 0.000000000000000
-0.003344858710501 -0.000422553921888 0.000000000000000
-0.003265523451123 -0.000838443916006 0.000000000000000
-0.003134688936191 -0.001241111148706 0.000000000000000
-0.002954418504162 -0.001624205317188 0.000000000000000
-0.002727555127440 -0.001981684797564 0.000000000000000
-0.002457676576995 -0.002307911924882 0.000000000000000
-0.002149038998786 -0.002597741902464 0.000000000000000
-0.001806509791792 -0.002846603938429 0.000000000000000
-0.001435490846225 -0.003050573329806 0.000000000000000
-0.001041833352493 -0.003206433357448 0.000000000000000
-0.000631745524431 -0.003311726015612 0.000000000000000
-0.000211694692062 -0.003364790776181 0.000000000000000
0.000211694692062 -0.003364790776181 0.000000000000000
0.000631745524431 -0.003311726015612 0.000000000000000
0.001041833352493 -0.003206433357448 0.000000000000000
0.001435490846225 -0.003050573329806 0.000000000000000
0.001806509791792 -0.002846603938429 0.000000000000000
0.002149038998786 -0.002597741902464 0.000000000000000
0.002457676576995 -0.002307911924882 0.000000000000000
0.002727555127440 -0.001981684797564 0.000000000000000
0.002954418504162 -0.001624205317188 0.000000000000000
0.003134688936191 -0.001241111148706 0.000000000000000
0.003265523451123 -0.000838443916006 0.000000000000000
0.003344858710501 -0.000422553921888 0.000000000000000
0.011400754268046 0.000000000000000 0.000000000000000
0.011310855915403 0.001428893397486 0.000000000000000
0.011042578608195 0.002835252292515 0.000000000000000
0.010600153239820 0.004196897565192 0.000000000000000
0.009990557122628 0.005492355256162 0.000000000000000
0.009223403951542 0.006701195223768 0.000000000000000
0.008310792190347 0.007804353339595 0.000000000000000
0.007267114271682 0.008784432141162 0.000000000000000
0.006108829619790 0.009625975200298 0.000000000000000
0.004854205075556 0.010315710880246 0.000000000000000
0.003523026817519 0.010842761637305 0.000000000000000
0.002136288322015 0.011198815566193 0.000000000000000
0.000715859283517 0.011378257483753 0.000000000000000
-0.000715859283517 0.011378257483753 0.000000000000000
-0.002136288322015 0.011198815566193 0.000000000000000
-0.003523026817519 0.010842761637305 0.000000000000000
-0.004854205075556 0.010315710880246 0.000000000000000
-0.006108829619790 0.009625975200298 0.000000000000000
-0.007267114271682 0.008784432141162 0.000000000000000
-0.008310792190347 0.007804353339595 0.000000000000000
-0.009223403951542 0.006701195223768 0.000000000000000
-0.009990557122628 0.005492355256162 0.000000000000000
-0.010600153239820 0.004196897565192 0.000000000000000
-0.011042578608195 0.002835252292515 0.000000000000000
-0.011310855915403 0.001428893397486 0.000000000000000
-0.011400754268046 0.000000000000000 0.000000000000000
-0.011310855915403 -0.001428893397486 0.000000000000000
-0.011042578608195 -0.002835252292515 0.000000000000000
-0.010600153239820 -0.004196897565192 0.000000000000000
-0.009990557122628 -0.005492355256162 0.000000000000000
-0.009223403951542 -0.006701195223768 0.000000000000000
-0.008310792190347 -0.007804353339595 0.000000000000000
-0.007267114271682 -0.008784432141162 0.000000000000000
-0.006108829619790 -0.009625975200298 0.000000000000000
-0.004854205075556 -0.010315710880246 0.000000000000000
-0.003523026817519 -0.010842761637305 0.000000000000000
-0.002136288322015 -0.011198815566193 0.000000000000000
-0.000715859283517 -0.011378257483753 0.000000000000000
0.000715859283517 -0.011378257483753 0.000000000000000
0.002136288322015 -0.011198815566193 0.000000000000000
0.003523026817519 -0.010842761637305 0.000000000000000
0.004854205075556 -0.010315710880246 0.000000000000000
0.006108829619790 -0.009625975200298 0.000000000000000
0.007267114271682 -0.008784432141162 0.000000000000000
0.008310792190347 -0.007804353339595 0.000000000000000
0.009223403951542 -0.006701195223768 0.000000000000000
0.009990557122628 -0.005492355256162 0.000000000000000
0.010600153239820 -0.004196897565192 0.000000000000000
0.011042578608195 -0.002835252292515 0.000000000000000
0.011310855915403 -0.001428893397486 0.000000000000000
0.024099019329368 0.000000000000000 0.000000000000000
0.023908991363928 0.003020408018278 0.000000000000000
0.023341904322139 0.005993182397804 0.000000000000000
0.022406701505413 0.008871440710763 0.000000000000000
0.021118131620831 0.011609791104171 0.000000000000000
0.019496516185229 0.014165048156514 0.000000000000000
0.017567429042731 0.016496913937638 0.000000000000000
0.015361293049956 0.018568613531188 0.000000000000000
0.012912900289392 0.020347474996998 0.000000000000000
0.010260863377471 0.021805444627114 0.000000000000000
0.007447006520545 0.022919529369518 0.000000000000000
0.004515705922164 0.023672159442302 0.000000000000000
0.001513189943838 0.024051465419619 0.000000000000000
-0.001513189943838 0.024051465419619 0.000000000000000
-0.004515705922164 0.023672159442302 0.000000000000000
-0.007447006520545 0.022919529369518 0.000000000000000
-0.010260863377471 0.021805444627114 0.000000000000000
-0.012912900289392 0.020347474996998 0.000000000000000
-0.015361293049956 0.018568613531188 0.000000000000000
-0.017567429042731 0.016496913937638 0.000000000000000
-0.019496516185229 0.014165048156514 0.000000000000000
-0.021118131620831 0.011609791104171 0.000000000000000
-0.022406701505413 0.008871440710763 0.000000000000000
-0.023341904322139 0.005993182397804 0.000000000000000
-0.023908991363928 0.003020408018278 0.000000000000000
-0.024099019329368 0.000000000000000 0.000000000000000
-0.023908991363928 -0.003020408018278 0.000000000000000
-0.023341904322139 -0.005993182397804 0.000000000000000
-0.022406701505413 -0.008871440710763 0.000000000000000
-0.021118131620831 -0.011609791104171 0.000000000000000
[...]
POINT_DATA 1650

SCALARS beta float 1
LOOKUP_TABLE default
4.709920e-07
4.709913e-07
4.709910e-07
4.709908e-07
4.709909e-07
4.709913e-07
4.709919e-07
4.709927e-07
4.709938e-07
4.709951e-07
4.709965e-07
4.709981e-07
4.709998e-07
4.710016e-07
4.710035e-07
4.710054e-07
4.710073e-07
4.710091e-07
4.710110e-07
4.710127e-07
4.710143e-07
4.710159e-07
4.710172e-07
4.710184e-07
4.710194e-07
4.710201e-07
4.710207e-07
4.710211e-07
4.710212e-07
4.710211e-07
4.710208e-07
4.710202e-07
4.710194e-07
4.710185e-07
4.710173e-07
4.710160e-07
4.710145e-07
4.710129e-07
4.710111e-07
4.710093e-07
4.710074e-07
4.710055e-07
4.710036e-07
4.710017e-07
4.709999e-07
4.709982e-07
4.709966e-07
4.709952e-07
4.709939e-07
4.709928e-07
4.710496e-07
4.709844e-07
4.709441e-07
4.709306e-07
4.709445e-07
4.709851e-07
4.710505e-07
4.711377e-07
4.712426e-07
4.713604e-07
4.714860e-07
4.716140e-07
4.717390e-07
4.718563e-07
4.719616e-07
4.720517e-07
4.721242e-07
4.721781e-07
4.722133e-07
4.722311e-07
4.722334e-07
4.722232e-07
4.722039e-07
4.721792e-07
4.721530e-07
4.721286e-07
4.721092e-07
4.720970e-07
4.720935e-07
4.720991e-07
4.721133e-07
4.721344e-07
4.721603e-07
4.721877e-07
4.722132e-07
4.722328e-07
4.722431e-07
4.722404e-07
4.722219e-07
4.721857e-07
4.721307e-07
4.720570e-07
4.719657e-07
4.718591e-07
4.717408e-07
4.716147e-07
4.714860e-07
4.713599e-07
4.712417e-07
4.711367e-07
4.759741e-07
4.754153e-07
4.750690e-07
4.749546e-07
4.750784e-07
4.754334e-07
4.759999e-07
4.767462e-07
4.776309e-07
4.786047e-07
4.796137e-07
4.806027e-07
4.815182e-07
4.823116e-07
4.829428e-07
4.833820e-07
4.836121e-07
4.836292e-07
4.834431e-07
4.830765e-07
4.825630e-07
4.819450e-07
4.812707e-07
4.805908e-07
4.799555e-07
4.794104e-07
4.789944e-07
4.787368e-07
4.786558e-07
4.787568e-07
4.790330e-07
4.794648e-07
4.800219e-07
4.806649e-07
4.813474e-07
4.820199e-07
4.826318e-07
4.831357e-07
4.834902e-07
4.836625e-07
4.836311e-07
4.833872e-07
4.829352e-07
4.822930e-07
4.814909e-07
4.805693e-07
4.795768e-07
4.785669e-07
4.775949e-07
4.767143e-07
4.982924e-07
4.959435e-07
4.944903e-07
4.940135e-07
4.945394e-07
4.960382e-07
4.984262e-07
5.015690e-07
5.052882e-07
5.093693e-07
5.135734e-07
5.176502e-07
5.213537e-07
5.244584e-07
5.267759e-07
5.281682e-07
5.285592e-07
5.279403e-07
5.263707e-07
5.239730e-07
5.209236e-07
5.174389e-07
5.137596e-07
5.101343e-07
5.068026e-07
5.039803e-07
5.018469e-07
5.005354e-07
5.001259e-07
5.006419e-07
5.020495e-07
5.042598e-07
5.071335e-07
5.104883e-07
5.141089e-07
5.177587e-07
5.211943e-07
5.241809e-07
5.265084e-07
5.280063e-07
5.285571e-07
5.281055e-07
5.266628e-07
5.243065e-07
5.211745e-07
5.174548e-07
5.133717e-07
5.091708e-07
5.051020e-07
5.014045e-07
5.593993e-07
5.522889e-07
5.479302e-07
5.465343e-07
5.481592e-07
5.527145e-07
5.599664e-07
5.695436e-07
5.809426e-07
5.935366e-07
6.065930e-07
6.193048e-07
6.308396e-07
6.404043e-07
6.473170e-07
6.510755e-07
6.514095e-07
6.483074e-07
6.420151e-07
6.330079e-07
6.219437e-07
6.096026e-07
5.968222e-07
5.844358e-07
5.732166e-07
5.638340e-07
5.568221e-07
5.525602e-07
5.512641e-07
5.529850e-07
5.576147e-07
5.648927e-07
5.744167e-07
5.856528e-07
5.979511e-07
6.105678e-07
6.226995e-07
6.335323e-07
6.423025e-07
6.483653e-07
6.512578e-07
6.507472e-07
6.468547e-07
6.398526e-07
6.302350e-07
6.186694e-07
6.059358e-07
5.928626e-07
5.802657e-07
5.688960e-07
6.915373e-07
6.731321e-07
6.620806e-07
6.587454e-07
6.631571e-07
6.750579e-07
6.939322e-07
7.190114e-07
7.492420e-07
7.832213e-07
8.191359e-07
8.547579e-07
8.875548e-07
9.149306e-07
9.345563e-07
9.447028e-07
9.444824e-07
9.339467e-07
9.140388e-07
8.864374e-07
8.533400e-07
8.172225e-07
7.806024e-07
7.458339e-07
7.149556e-07
6.896016e-07
6.709717e-07
6.598411e-07
6.565919e-07
6.612526e-07
6.735367e-07
6.928728e-07
7.184166e-07
7.490337e-07
7.832584e-07
8.192507e-07
8.548011e-07
8.874326e-07
9.146192e-07
9.340915e-07
9.441529e-07
9.439223e-07
9.334444e-07
9.136571e-07
8.862417e-07
8.534029e-07
8.176167e-07
7.813864e-07
7.470347e-07
7.165564e-07
9.437492e-07
8.998321e-07
8.741530e-07
8.669810e-07
8.780675e-07
9.067675e-07
9.521423e-07
1.013008e-06
1.087820e-06
1.174287e-06
1.268754e-06
1.365683e-06
1.457666e-06
1.536252e-06
1.593404e-06
1.623052e-06
1.622180e-06
1.591165e-06
1.533435e-06
1.454754e-06
1.362346e-06
1.263975e-06
1.167014e-06
1.077685e-06
1.000659e-06
9.390789e-07
8.948475e-07
8.689486e-07
8.616956e-07
8.728868e-07
9.019044e-07
9.477825e-07
1.009236e-06
1.084570e-06
1.171363e-06
1.265927e-06
1.362827e-06
1.454866e-06
1.533800e-06
1.591672e-06
1.622316e-06
1.622500e-06
1.592393e-06
1.535330e-06
1.457109e-06
1.365062e-06
1.267047e-06
1.170480e-06
1.081569e-06
1.004953e-06
1.405098e-06
1.306520e-06
1.250004e-06
1.234628e-06
1.259520e-06
1.323895e-06
1.426949e-06
1.567879e-06
1.745861e-06
1.959104e-06
2.202267e-06
2.463174e-06
2.721375e-06
2.950347e-06
3.122705e-06
3.216219e-06
3.218656e-06
3.130152e-06
2.962512e-06
2.736120e-06
2.476104e-06
2.208388e-06
1.955512e-06
1.733285e-06
1.550140e-06
1.409143e-06
1.310661e-06
1.254043e-06
1.238373e-06
1.262851e-06
1.326894e-06
1.429879e-06
1.570948e-06
1.749019e-06
1.962041e-06
2.204552e-06
2.464482e-06
2.721777e-06
2.950413e-06
3.123154e-06
3.217329e-06
3.220082e-06
3.131252e-06
2.962718e-06
2.735168e-06
2.474129e-06
2.205753e-06
1.952477e-06
1.729890e-06
1.546372e-06
2.230292e-06
2.021024e-06
1.904184e-06
1.872309e-06
1.922383e-06
2.056248e-06
2.278385e-06
2.593681e-06
3.007455e-06
3.525277e-06
4.145881e-06
4.847245e-06
5.577545e-06
6.259179e-06
6.801365e-06
7.116927e-06
7.145349e-06
6.876747e-06
6.357792e-06
5.671949e-06
4.913542e-06
4.170585e-06
3.509938e-06
2.965689e-06
2.542595e-06
2.231638e-06
2.022428e-06
1.905999e-06
1.874539e-06
1.924161e-06
2.057252e-06
2.279359e-06
2.595014e-06
3.008832e-06
3.526759e-06
4.147806e-06
4.849203e-06
5.578684e-06
6.259789e-06
6.802646e-06
7.118402e-06
7.145308e-06
6.875337e-06
6.356060e-06
5.669745e-06
4.911081e-06
4.169041e-06
3.509513e-06
2.965344e-06
2.541610e-06
3.597850e-06
3.176190e-06
2.955262e-06
2.900862e-06
3.000535e-06
3.264128e-06
3.716802e-06
4.391505e-06
5.323667e-06
6.558073e-06
8.137620e-06
1.004957e-05
1.218223e-05
1.431860e-05
1.614102e-05
1.727653e-05
1.741999e-05
1.650019e-05
1.474835e-05
1.255571e-05
1.028655e-05
8.216877e-06
6.512171e-06
5.208672e-06
4.257408e-06
3.593271e-06
3.168433e-06
2.947807e-06
2.897136e-06
2.995759e-06
3.256686e-06
3.712014e-06
4.388369e-06
5.317473e-06
6.550845e-06
8.132931e-06
1.004763e-05
1.217910e-05
1.431190e-05
1.613955e-05
1.728026e-05
1.741582e-05
1.649582e-05
1.475481e-05
1.256220e-05
1.028882e-05
8.221616e-06
6.519282e-06
5.214971e-06
4.261771e-06
5.712224e-06
4.915990e-06
4.521818e-06
4.431861e-06
4.631415e-06
5.138170e-06
6.007731e-06
7.367556e-06
9.366210e-06
1.220517e-05
1.617265e-05
2.145480e-05
2.796909e-05
3.519494e-05
4.187202e-05
4.622947e-05
4.678848e-05
4.320447e-05
3.670221e-05
2.921299e-05
2.218549e-05
1.640544e-05
1.210584e-05
9.090657e-06
7.051624e-06
5.727921e-06
4.922071e-06
4.521943e-06
4.448284e-06
4.640980e-06
5.134579e-06
6.020982e-06
7.381777e-06
9.365944e-06
1.221509e-05
1.618031e-05
2.145986e-05
2.798858e-05
3.518250e-05
4.186592e-05
4.627083e-05
4.677409e-05
4.317767e-05
3.673054e-05
2.921004e-05
2.216279e-05
1.640406e-05
1.209672e-05
9.081303e-06
7.045965e-06
8.782164e-06
7.399620e-06
6.732224e-06
6.565523e-06
6.933088e-06
7.855068e-06
9.414788e-06
1.199083e-05
1.605311e-05
2.231249e-05
3.207006e-05
4.676510e-05
6.758646e-05
9.428477e-05
1.219264e-04
1.409321e-04
1.427184e-04
1.259443e-04
9.852526e-05
7.075560e-05
4.821549e-05
3.222297e-05
2.182803e-05
1.524981e-05
1.118668e-05
8.793614e-06
7.399416e-06
6.696426e-06
6.578579e-06
6.929960e-06
7.817594e-06
9.433781e-06
1.198375e-05
1.600419e-05
2.235129e-05
3.205574e-05
4.668941e-05
6.767727e-05
9.424952e-05
1.218104e-04
1.410958e-04
1.426623e-04
1.258443e-04
9.866082e-05
7.071408e-05
4.817803e-05
3.230149e-05
2.181051e-05
1.524355e-05
1.123453e-05
1.276775e-05
1.054413e-05
9.519914e-06
9.312503e-06
9.914389e-06
1.139981e-05
1.402281e-05
1.854104e-05
2.617035e-05
3.918282e-05
6.220977e-05
1.030086e-04
1.730990e-04
2.824858e-04
4.174685e-04
5.195418e-04
5.206924e-04
4.204071e-04
2.861603e-04
1.756717e-04
1.032425e-04
6.087697e-05
3.732719e-05
2.421300e-05
1.686382e-05
1.280015e-05
1.056799e-05
9.498788e-06
9.341103e-06
9.928017e-06
1.138124e-05
1.406661e-05
1.854680e-05
2.613441e-05
3.926558e-05
6.221181e-05
1.029091e-04
1.732779e-04
2.824929e-04
4.172383e-04
5.198578e-04
5.206134e-04
4.202498e-04
2.863794e-04
1.755758e-04
1.031783e-04
6.096274e-05
3.726772e-05
2.417416e-05
1.689785e-05
1.753851e-05
1.427144e-05
1.277484e-05
1.258143e-05
1.346902e-05
1.564672e-05
1.976663e-05
2.696795e-05
3.999369e-05
6.489066e-05
1.154013e-04
2.245976e-04
4.667793e-04
9.656886e-04
1.764550e-03
2.462764e-03
2.385233e-03
1.634203e-03
8.861240e-04
4.327774e-04
2.099766e-04
1.070999e-04
5.897356e-05
3.563754e-05
2.380557e-05
1.749931e-05
1.424829e-05
1.279363e-05
1.255356e-05
1.345307e-05
1.566497e-05
1.971990e-05
2.696048e-05
4.003532e-05
6.479155e-05
1.153892e-04
2.247679e-04
4.664380e-04
9.657417e-04
1.765009e-03
2.462111e-03
2.385412e-03
1.634563e-03
8.857403e-04
4.329449e-04
2.100554e-04
1.070018e-04
5.903831e-05
3.568949e-05
2.376320e-05
2.251879e-05
1.818470e-05
1.628172e-05
1.602198e-05
1.728591e-05
2.031981e-05
2.601220e-05
3.645751e-05
5.657697e-05
9.866830e-05
1.979438e-04
4.642416e-04
1.259825e-03
3.642523e-03
9.229160e-03
1.542009e-02
1.382414e-02
7.115999e-03
2.731461e-03
9.892901e-04
3.850118e-04
1.691676e-04
8.487075e-05
4.835635e-05
3.113130e-05
2.253507e-05
1.821245e-05
1.627523e-05
1.604405e-05
1.729432e-05
2.032858e-05
2.603542e-05
3.647378e-05
5.655619e-05
9.875445e-05
1.979366e-04
4.641902e-04
1.260022e-03
3.642836e-03
9.228298e-03
1.542154e-02
1.382369e-02
7.116202e-03
2.731589e-03
9.892418e-04
3.849295e-04
1.692375e-04
8.480404e-05
4.833017e-05
3.113371e-05
2.728075e-05
2.197603e-05
1.969767e-05
1.945893e-05
2.105876e-05
2.488557e-05
3.216794e-05
4.584187e-05
7.325991e-05
1.352168e-04
3.007911e-04
8.442265e-04
3.048992e-03
1.322501e-02
5.375640e-02
1.217881e-01
9.285564e-02
2.977262e-02
7.245620e-03
1.892711e-03
5.992268e-04
2.332393e-04
1.092299e-04
6.004652e-05
3.799241e-05
2.726917e-05
2.195848e-05
1.968118e-05
1.945695e-05
2.104236e-05
2.487045e-05
3.215037e-05
4.583773e-05
7.323772e-05
1.351889e-04
3.007472e-04
8.442662e-04
3.048798e-03
1.322469e-02
5.375637e-02
1.217906e-01
9.285614e-02
2.977283e-02
7.245733e-03
1.892872e-03
5.992152e-04
2.332580e-04
1.092618e-04
6.007483e-05
3.800286e-05
3.121677e-05
2.525835e-05
2.270259e-05
2.250336e-05
2.440776e-05
2.890036e-05
3.740191e-05
5.351702e-05
8.657415e-05
1.646554e-04
3.906211e-04
1.243393e-03
5.617156e-03
3.529029e-02
2.506294e-01
8.268746e-01
4.993418e-01
8.567374e-02
1.337454e-02
2.719344e-03
7.552181e-04
2.763764e-04
1.261200e-04
6.870329e-05
4.339218e-05
3.123201e-05
2.527038e-05
2.271575e-05
2.250815e-05
2.442006e-05
2.890678e-05
3.743324e-05
5.349994e-05
8.660261e-05
1.646876e-04
3.906536e-04
1.243316e-03
5.617484e-03
3.529063e-02
2.506284e-01
8.268769e-01
4.993532e-01
8.567606e-02
1.337450e-02
2.719172e-03
7.553111e-04
2.763260e-04
1.261094e-04
6.867362e-05
4.339163e-05
3.411868e-05
2.781813e-05
2.516648e-05
2.498696e-05
2.710285e-05
3.199940e-05
4.122366e-05
5.857877e-05
9.406625e-05
1.782938e-04
4.271758e-04
1.407893e-03
6.856348e-03
4.957085e-02
4.472536e-01
3.288548e-01
8.084412e-01
1.077272e-01
1.444581e-02
2.776173e-03
7.648191e-04
2.833668e-04
1.317281e-04
7.306108e-05
4.687981e-05
3.411717e-05
2.781268e-05
2.514780e-05
2.500288e-05
2.709487e-05
3.198633e-05
4.122558e-05
5.858835e-05
9.402660e-05
1.783305e-04
4.271315e-04
1.407868e-03
6.856455e-03
4.956957e-02
4.472426e-01
3.288653e-01
8.084470e-01
1.077303e-01
1.444531e-02
2.776502e-03
7.647823e-04
2.833614e-04
1.317381e-04
7.308226e-05
4.686997e-05
3.582966e-05
2.957020e-05
2.692405e-05
2.681281e-05
2.902352e-05
3.408008e-05
4.342496e-05
6.065913e-05
9.505517e-05
1.744402e-04
3.997904e-04
1.237081e-03
5.447353e-03
3.280544e-02
2.090273e-01
5.901934e-01
3.027695e-01
5.428099e-02
9.301922e-03
2.093320e-03
6.445902e-04
2.587165e-04
1.273200e-04
7.344683e-05
4.834318e-05
3.583417e-05
2.956711e-05
2.690956e-05
2.679979e-05
2.903358e-05
3.406591e-05
4.342645e-05
6.062999e-05
9.503259e-05
1.744812e-04
3.998169e-04
1.236794e-03
5.447532e-03
3.280467e-02
2.090228e-01
5.901921e-01
3.027706e-01
5.427866e-02
9.302829e-03
2.093153e-03
6.445933e-04
2.587864e-04
1.273195e-04
7.343492e-05
4.837984e-05
3.653037e-05
3.056075e-05
2.799420e-05
2.793290e-05
3.014850e-05
3.508975e-05
4.412123e-05
6.017415e-05
9.097643e-05
1.581741e-04
3.332586e-04
9.010835e-04
3.177251e-03
1.321957e-02
4.792035e-02
8.728720e-02
5.472746e-02
1.675702e-02
4.365017e-03
1.300606e-03
4.819528e-04
2.184549e-04
1.163460e-04
7.070336e-05
4.824317e-05
3.652309e-05
3.055617e-05
2.802616e-05
2.793283e-05
3.016344e-05
3.516181e-05
4.407714e-05
6.017118e-05
9.106349e-05
1.581483e-04
3.333275e-04
9.013799e-04
3.176215e-03
1.321999e-02
4.792444e-02
8.728567e-02
5.472705e-02
1.675770e-02
4.364113e-03
1.300767e-03
4.820329e-04
2.183657e-04
1.163538e-04
7.070269e-05
4.815572e-05
3.638178e-05
3.087311e-05
2.853373e-05
2.848093e-05
3.064116e-05
3.534542e-05
4.355249e-05
5.792185e-05
8.403954e-05
1.365898e-04
2.593448e-04
5.935809e-04
1.606925e-03
4.540957e-03
1.037170e-02
1.421545e-02
1.037300e-02
4.788437e-03
1.860277e-03
7.491949e-04
3.409416e-04
1.766912e-04
1.027900e-04
6.620785e-05
4.684987e-05
3.640763e-05
3.085971e-05
2.846883e-05
2.850862e-05
3.065172e-05
3.525188e-05
4.360217e-05
5.790830e-05
8.393240e-05
1.367006e-04
2.593328e-04
5.931998e-04
1.607447e-03
4.540237e-03
1.037044e-02
1.421774e-02
1.037300e-02
4.787440e-03
1.860668e-03
7.490651e-04
3.409214e-04
1.768528e-04
1.027799e-04
6.617173e-05
4.692624e-05
3.565397e-05
3.067930e-05
2.850994e-05
2.857399e-05
3.058181e-05
3.482344e-05
4.227940e-05
5.456453e-05
7.577197e-05
1.153215e-04
1.964431e-04
3.799275e-04
8.034775e-04
1.640200e-03
2.700596e-03
3.129899e-03
2.526492e-03
1.555026e-03
8.315855e-04
4.351214e-04
2.389867e-04
1.409767e-04
8.936971e-05
6.091413e-05
4.481938e-05
3.560980e-05
3.069112e-05
2.856758e-05
2.852626e-05
3.054406e-05
3.490159e-05
4.222172e-05
5.457419e-05
7.586407e-05
1.151971e-04
1.963985e-04
3.801720e-04
8.031371e-04
1.640558e-03
2.700844e-03
3.128937e-03
2.526519e-03
1.555543e-03
8.313382e-04
4.351766e-04
2.390297e-04
1.408802e-04
8.939477e-05
6.096516e-05
4.476737e-05
3.446893e-05
3.011939e-05
2.820893e-05
2.819782e-05
3.002541e-05
3.392121e-05
4.040042e-05
5.084449e-05
6.773972e-05
9.648465e-05
1.489312e-04
2.482160e-04
4.262490e-04
6.805744e-04
8.996561e-04
9.450783e-04
8.196075e-04
6.138716e-04
4.140385e-04
2.661215e-04
1.709924e-04
1.126629e-04
7.716966e-05
5.555079e-05
4.236057e-05
3.451482e-05
3.011969e-05
2.819960e-05
2.823628e-05
3.007313e-05
3.389464e-05
4.044792e-05
5.085299e-05
6.770767e-05
9.655632e-05
1.489970e-04
2.481411e-04
4.263986e-04
6.804590e-04
8.997287e-04
9.451875e-04
8.196400e-04
6.137340e-04
4.140898e-04
2.661385e-04
1.709558e-04
1.126441e-04
7.715233e-05
5.550998e-05
4.236107e-05
3.306547e-05
2.923273e-05
2.755377e-05
2.757988e-05
2.925168e-05
3.266059e-05
3.825752e-05
4.695240e-05
6.029245e-05
8.109682e-05
1.147286e-04
1.686527e-04
2.460671e-04
3.290327e-04
3.775352e-04
3.753851e-04
3.428074e-04
2.924250e-04
2.316467e-04
1.734338e-04
1.260291e-04
9.105320e-05
6.676376e-05
5.036693e-05
3.968632e-05
3.305583e-05
2.923161e-05
2.750513e-05
2.758932e-05
2.922175e-05
3.262059e-05
3.825894e-05
4.694322e-05
6.025373e-05
8.110947e-05
1.146734e-04
1.686000e-04
2.461073e-04
3.290003e-04
3.773306e-04
3.756333e-04
3.427129e-04
2.923344e-04
2.317846e-04
1.733575e-04
1.260151e-04
9.117167e-05
6.674514e-05
5.036834e-05
3.974034e-05
3.128333e-05
2.800861e-05
2.649576e-05
2.657309e-05
2.800960e-05
3.097415e-05
3.584488e-05
4.296641e-05
5.333244e-05
6.851779e-05
9.011375e-05
1.195675e-04
1.540523e-04
1.815092e-04
1.901322e-04
1.840259e-04
1.739605e-04
1.617401e-04
1.435059e-04
1.197267e-04
9.561248e-05
7.458108e-05
5.774312e-05
4.539957e-05
3.686370e-05
3.123393e-05
2.799717e-05
2.656423e-05
2.650286e-05
2.799690e-05
3.104998e-05
3.577984e-05
4.295316e-05
5.339557e-05
6.843971e-05
9.012564e-05
1.196552e-04
1.538946e-04
1.815868e-04
1.903059e-04
1.836978e-04
1.740509e-04
1.619164e-04
1.432991e-04
1.198340e-04
9.567362e-05
7.443862e-05
5.780210e-05
4.545463e-05
3.679764e-05
2.889086e-05
2.613785e-05
2.486926e-05
2.486152e-05
2.613488e-05
2.871008e-05
3.268989e-05
3.858362e-05
4.671728e-05
5.745380e-05
7.135476e-05
8.758854e-05
1.024527e-04
1.103396e-04
1.088131e-04
1.035810e-04
1.008605e-04
9.948136e-05
9.507549e-05
8.621708e-05
7.393480e-05
6.094274e-05
4.943369e-05
4.023385e-05
3.348247e-05
2.896080e-05
2.615039e-05
2.484925e-05
2.494106e-05
2.618139e-05
2.866536e-05
3.276698e-05
3.861021e-05
4.670593e-05
5.751440e-05
7.138951e-05
8.755179e-05
1.025769e-04
1.102772e-04
1.087625e-04
1.037708e-04
1.008331e-04
9.935594e-05
9.518423e-05
8.613336e-05
7.389522e-05
6.100890e-05
4.937865e-05
4.015169e-05
3.349903e-05
2.538715e-05
2.314860e-05
2.217816e-05
2.216505e-05
2.318252e-05
2.526473e-05
2.852750e-05
3.311694e-05
3.919235e-05
4.675188e-05
5.551544e-05
6.405012e-05
6.973124e-05
7.028453e-05
6.666491e-05
6.292756e-05
6.247800e-05
6.419074e-05
6.487300e-05
6.229809e-05
5.636720e-05
4.854058e-05
4.083180e-05
3.416398e-05
2.897884e-05
2.538672e-05
2.317199e-05
2.211201e-05
2.217048e-05
2.315354e-05
2.523208e-05
2.853193e-05
3.311988e-05
3.911392e-05
4.679869e-05
5.546817e-05
6.400200e-05
6.976528e-05
7.030374e-05
6.658017e-05
6.298360e-05
6.241584e-05
6.417405e-05
6.496903e-05
6.230362e-05
5.630367e-05
4.860328e-05
4.081405e-05
3.420204e-05
2.903627e-05
2.023517e-05
1.858276e-05
1.769239e-05
1.779130e-05
1.858355e-05
2.010326e-05
2.251800e-05
2.578083e-05
2.998076e-05
3.509883e-05
4.016032e-05
4.417085e-05
4.583938e-05
4.403689e-05
4.043715e-05
3.821605e-05
3.835870e-05
4.060653e-05
4.287435e-05
4.265705e-05
4.004770e-05
3.593918e-05
3.091544e-05
2.637135e-05
2.280856e-05
2.012587e-05
1.851028e-05
1.779422e-05
1.767835e-05
1.855450e-05
2.017685e-05
2.240705e-05
2.572926e-05
3.008676e-05
3.496046e-05
4.017402e-05
4.425375e-05
4.566550e-05
4.404940e-05
4.057413e-05
3.799303e-05
3.847133e-05
4.073843e-05
4.262679e-05
4.273225e-05
4.020680e-05
3.580587e-05
3.101755e-05
2.641663e-05
2.272275e-05
1.324920e-05
1.225559e-05
1.182078e-05
1.179432e-05
1.223000e-05
1.322412e-05
1.474676e-05
1.678358e-05
1.932750e-05
2.210417e-05
2.478882e-05
2.653497e-05
2.634232e-05
2.452998e-05
2.220626e-05
2.072598e-05
2.120003e-05
2.294905e-05
2.460166e-05
2.552829e-05
2.464487e-05
2.230302e-05
1.969265e-05
1.711314e-05
1.490568e-05
1.336538e-05
1.231556e-05
1.179727e-05
1.188065e-05
1.227790e-05
1.321393e-05
1.483826e-05
1.682259e-05
1.932447e-05
2.216840e-05
2.481490e-05
2.650797e-05
2.646999e-05
2.451817e-05
2.214540e-05
2.087962e-05
2.112096e-05
2.284201e-05
2.480076e-05
2.544464e-05
2.452610e-05
2.236644e-05
1.960768e-05
1.705016e-05
1.494166e-05
6.368569e-06
5.868061e-06
5.719395e-06
5.601539e-06
5.903081e-06
6.388488e-06
6.930361e-06
7.961496e-06
9.149520e-06
1.018074e-05
1.130559e-05
1.187416e-05
1.149122e-05
1.046330e-05
9.316848e-06
8.696583e-06
9.003742e-06
9.798443e-06
1.080373e-05
1.131825e-05
1.116274e-05
1.028079e-05
9.160311e-06
8.038477e-06
7.071433e-06
6.392305e-06
5.897702e-06
5.608386e-06
5.705418e-06
5.919875e-06
6.275094e-06
7.009850e-06
8.018207e-06
8.988626e-06
1.033631e-05
1.127994e-05
1.180540e-05
1.157056e-05
1.045201e-05
9.244986e-06
8.785741e-06
8.991211e-06
9.761241e-06
1.081172e-05
1.133054e-05
1.110784e-05
1.036888e-05
9.115019e-06
8.010869e-06
7.110356e-06
1.721125e-06
1.630777e-06
1.430524e-06
1.648121e-06
1.608108e-06
1.640228e-06
2.020142e-06
2.065478e-06
2.230345e-06
2.842584e-06
2.935905e-06
2.877514e-06
2.897593e-06
2.559334e-06
2.246407e-06
2.222814e-06
2.105848e-06
2.397586e-06
2.755308e-06
2.803090e-06
2.714750e-06
2.754661e-06
2.426761e-06
2.105049e-06
1.882336e-06
1.583854e-06
1.537512e-06
1.606841e-06
1.395049e-06
1.516615e-06
1.815210e-06
1.814000e-06
1.946277e-06